 title=me
 variables=x,y,me
 zone i=          55 ,j=          55
 
   0.0000000000000000        0.0000000000000000        0.0000000000000000     
   4.7169811320754717E-004   0.0000000000000000        0.0000000000000000     
   1.4150943396226416E-003   0.0000000000000000        0.0000000000000000     
   2.3584905660377362E-003   0.0000000000000000        0.0000000000000000     
   3.3018867924528303E-003   0.0000000000000000        0.0000000000000000     
   4.2452830188679245E-003   0.0000000000000000        0.0000000000000000     
   5.1886792452830186E-003   0.0000000000000000        0.0000000000000000     
   6.1320754716981127E-003   0.0000000000000000        0.0000000000000000     
   7.0754716981132068E-003   0.0000000000000000        0.0000000000000000     
   8.0188679245283018E-003   0.0000000000000000        0.0000000000000000     
   8.9622641509433960E-003   0.0000000000000000        0.0000000000000000     
   9.9056603773584901E-003   0.0000000000000000        0.0000000000000000     
   1.0849056603773584E-002   0.0000000000000000        0.0000000000000000     
   1.1792452830188678E-002   0.0000000000000000        0.0000000000000000     
   1.2735849056603772E-002   0.0000000000000000        0.0000000000000000     
   1.3679245283018867E-002   0.0000000000000000        0.0000000000000000     
   1.4622641509433961E-002   0.0000000000000000        0.0000000000000000     
   1.5566037735849055E-002   0.0000000000000000        0.0000000000000000     
   1.6509433962264151E-002   0.0000000000000000        0.0000000000000000     
   1.7452830188679245E-002   0.0000000000000000        0.0000000000000000     
   1.8396226415094339E-002   0.0000000000000000        0.0000000000000000     
   1.9339622641509433E-002   0.0000000000000000        0.0000000000000000     
   2.0283018867924527E-002   0.0000000000000000        0.0000000000000000     
   2.1226415094339621E-002   0.0000000000000000        0.0000000000000000     
   2.2169811320754716E-002   0.0000000000000000        0.0000000000000000     
   2.3113207547169810E-002   0.0000000000000000        0.0000000000000000     
   2.4056603773584904E-002   0.0000000000000000        0.0000000000000000     
   2.4999999999999998E-002   0.0000000000000000        0.0000000000000000     
   2.5943396226415092E-002   0.0000000000000000        0.0000000000000000     
   2.6886792452830186E-002   0.0000000000000000        0.0000000000000000     
   2.7830188679245280E-002   0.0000000000000000        0.0000000000000000     
   2.8773584905660374E-002   0.0000000000000000        0.0000000000000000     
   2.9716981132075469E-002   0.0000000000000000        0.0000000000000000     
   3.0660377358490563E-002   0.0000000000000000        0.0000000000000000     
   3.1603773584905660E-002   0.0000000000000000        0.0000000000000000     
   3.2547169811320754E-002   0.0000000000000000        0.0000000000000000     
   3.3490566037735849E-002   0.0000000000000000        0.0000000000000000     
   3.4433962264150943E-002   0.0000000000000000        0.0000000000000000     
   3.5377358490566037E-002   0.0000000000000000        0.0000000000000000     
   3.6320754716981131E-002   0.0000000000000000        0.0000000000000000     
   3.7264150943396225E-002   0.0000000000000000        0.0000000000000000     
   3.8207547169811319E-002   0.0000000000000000        0.0000000000000000     
   3.9150943396226413E-002   0.0000000000000000        0.0000000000000000     
   4.0094339622641507E-002   0.0000000000000000        0.0000000000000000     
   4.1037735849056602E-002   0.0000000000000000        0.0000000000000000     
   4.1981132075471696E-002   0.0000000000000000        0.0000000000000000     
   4.2924528301886790E-002   0.0000000000000000        0.0000000000000000     
   4.3867924528301884E-002   0.0000000000000000        0.0000000000000000     
   4.4811320754716978E-002   0.0000000000000000        0.0000000000000000     
   4.5754716981132072E-002   0.0000000000000000        0.0000000000000000     
   4.6698113207547166E-002   0.0000000000000000        0.0000000000000000     
   4.7641509433962261E-002   0.0000000000000000        0.0000000000000000     
   4.8584905660377355E-002   0.0000000000000000        0.0000000000000000     
   4.9528301886792449E-002   0.0000000000000000        0.0000000000000000     
   5.0000000000000003E-002   0.0000000000000000        0.0000000000000000     
   0.0000000000000000        4.7169811320754717E-004   0.0000000000000000     
   4.7169811320754717E-004   4.7169811320754717E-004  -1.5879845632120550E-009
   1.4150943396226416E-003   4.7169811320754717E-004   5.5122446304718407E-010
   2.3584905660377362E-003   4.7169811320754717E-004   5.6580200063261539E-009
   3.3018867924528303E-003   4.7169811320754717E-004   1.2875908266976537E-008
   4.2452830188679245E-003   4.7169811320754717E-004   2.1687911623639337E-008
   5.1886792452830186E-003   4.7169811320754717E-004   3.1631422296126136E-008
   6.1320754716981127E-003   4.7169811320754717E-004   4.2290542315139704E-008
   7.0754716981132068E-003   4.7169811320754717E-004   5.3305276644237883E-008
   8.0188679245283018E-003   4.7169811320754717E-004   6.4372449976164513E-008
   8.9622641509433960E-003   4.7169811320754717E-004   7.5242356899502880E-008
   9.9056603773584901E-003   4.7169811320754717E-004   8.5713991836993016E-008
   1.0849056603773584E-002   4.7169811320754717E-004   9.5629946533012204E-008
   1.1792452830188678E-002   4.7169811320754717E-004   1.0487143636535089E-007
   1.2735849056603772E-002   4.7169811320754717E-004   1.1335360006394630E-007
   1.3679245283018867E-002   4.7169811320754717E-004   1.2102107007204076E-007
   1.4622641509433961E-002   4.7169811320754717E-004   1.2784378159497494E-007
   1.5566037735849055E-002   4.7169811320754717E-004   1.3381300226112669E-007
   1.6509433962264151E-002   4.7169811320754717E-004   1.3893758209985149E-007
   1.7452830188679245E-002   4.7169811320754717E-004   1.4324043485154633E-007
   1.8396226415094339E-002   4.7169811320754717E-004   1.4675526503130483E-007
   1.9339622641509433E-002   4.7169811320754717E-004   1.4952355228196708E-007
   2.0283018867924527E-002   4.7169811320754717E-004   1.5159179736916420E-007
   2.1226415094339621E-002   4.7169811320754717E-004   1.5300901750358605E-007
   2.2169811320754716E-002   4.7169811320754717E-004   1.5382444544986329E-007
   2.3113207547169810E-002   4.7169811320754717E-004   1.5408545032735966E-007
   2.4056603773584904E-002   4.7169811320754717E-004   1.5383615875209627E-007
   2.4999999999999998E-002   4.7169811320754717E-004   1.5311631256243657E-007
   2.5943396226415092E-002   4.7169811320754717E-004   1.5195998461227799E-007
   2.6886792452830186E-002   4.7169811320754717E-004   1.5039479435283614E-007
   2.7830188679245280E-002   4.7169811320754717E-004   1.4844154780583117E-007
   2.8773584905660374E-002   4.7169811320754717E-004   1.4611393276563634E-007
   2.9716981132075469E-002   4.7169811320754717E-004   1.4341826033267249E-007
   3.0660377358490563E-002   4.7169811320754717E-004   1.4035332693887647E-007
   3.1603773584905660E-002   4.7169811320754717E-004   1.3691043656086117E-007
   3.2547169811320754E-002   4.7169811320754717E-004   1.3307361428325930E-007
   3.3490566037735849E-002   4.7169811320754717E-004   1.2882004802130163E-007
   3.4433962264150943E-002   4.7169811320754717E-004   1.2412080661974522E-007
   3.5377358490566037E-002   4.7169811320754717E-004   1.1894190100870492E-007
   3.6320754716981131E-002   4.7169811320754717E-004   1.1324578259219321E-007
   3.7264150943396225E-002   4.7169811320754717E-004   1.0699341282063248E-007
   3.8207547169811319E-002   4.7169811320754717E-004   1.0014709530145086E-007
   3.9150943396226413E-002   4.7169811320754717E-004   9.2674345996583927E-008
   4.0094339622641507E-002   4.7169811320754717E-004   8.4553203466838581E-008
   4.1037735849056602E-002   4.7169811320754717E-004   7.5779574037499364E-008
   4.1981132075471696E-002   4.7169811320754717E-004   6.6377503701912550E-008
   4.2924528301886790E-002   4.7169811320754717E-004   5.6413729952206502E-008
   4.3867924528301884E-002   4.7169811320754717E-004   4.6018598894437544E-008
   4.4811320754716978E-002   4.7169811320754717E-004   3.5416410511080850E-008
   4.5754716981132072E-002   4.7169811320754717E-004   2.4968552170648726E-008
   4.6698113207547166E-002   4.7169811320754717E-004   1.5231335704803284E-008
   4.7641509433962261E-002   4.7169811320754717E-004   7.0313891826724631E-009
   4.8584905660377355E-002   4.7169811320754717E-004   1.5414852827676668E-009
   4.9528301886792449E-002   4.7169811320754717E-004   0.0000000000000000     
   5.0000000000000003E-002   4.7169811320754717E-004   0.0000000000000000     
   0.0000000000000000        1.4150943396226416E-003   0.0000000000000000     
   4.7169811320754717E-004   1.4150943396226416E-003   2.1620951838574636E-009
   1.4150943396226416E-003   1.4150943396226416E-003   9.4258312804052199E-009
   2.3584905660377362E-003   1.4150943396226416E-003   2.2526800376532068E-008
   3.3018867924528303E-003   1.4150943396226416E-003   4.0790784045003782E-008
   4.2452830188679245E-003   1.4150943396226416E-003   6.3115907999872738E-008
   5.1886792452830186E-003   1.4150943396226416E-003   8.8412024418803230E-008
   6.1320754716981127E-003   1.4150943396226416E-003   1.1567395935515646E-007
   7.0754716981132068E-003   1.4150943396226416E-003   1.4401191657966273E-007
   8.0188679245283018E-003   1.4150943396226416E-003   1.7265931108849189E-007
   8.9622641509433960E-003   1.4150943396226416E-003   2.0096997023480826E-007
   9.9056603773584901E-003   1.4150943396226416E-003   2.2841121223770674E-007
   1.0849056603773584E-002   1.4150943396226416E-003   2.5455512995167946E-007
   1.1792452830188678E-002   1.4150943396226416E-003   2.7906906485212988E-007
   1.2735849056603772E-002   1.4150943396226416E-003   3.0170578217338173E-007
   1.3679245283018867E-002   1.4150943396226416E-003   3.2229361576325667E-007
   1.4622641509433961E-002   1.4150943396226416E-003   3.4072673905039956E-007
   1.5566037735849055E-002   1.4150943396226416E-003   3.5695567610790175E-007
   1.6509433962264151E-002   1.4150943396226416E-003   3.7097815118954948E-007
   1.7452830188679245E-002   1.4150943396226416E-003   3.8283036522976107E-007
   1.8396226415094339E-002   1.4150943396226416E-003   3.9257877576527943E-007
   1.9339622641509433E-002   1.4150943396226416E-003   4.0031244031974311E-007
   2.0283018867924527E-002   1.4150943396226416E-003   4.0613596331744696E-007
   2.1226415094339621E-002   1.4150943396226416E-003   4.1016306815459275E-007
   2.2169811320754716E-002   1.4150943396226416E-003   4.1251081488934962E-007
   2.3113207547169810E-002   1.4150943396226416E-003   4.1329448622075567E-007
   2.4056603773584904E-002   1.4150943396226416E-003   4.1262293653166671E-007
   2.4999999999999998E-002   1.4150943396226416E-003   4.1059465668843956E-007
   2.5943396226415092E-002   1.4150943396226416E-003   4.0729542111715923E-007
   2.6886792452830186E-002   1.4150943396226416E-003   4.0279669394747756E-007
   2.7830188679245280E-002   1.4150943396226416E-003   3.9715421393742456E-007
   2.8773584905660374E-002   1.4150943396226416E-003   3.9040690585146802E-007
   2.9716981132075469E-002   1.4150943396226416E-003   3.8257620340461855E-007
   3.0660377358490563E-002   1.4150943396226416E-003   3.7366582592203304E-007
   3.1603773584905660E-002   1.4150943396226416E-003   3.6366207392104766E-007
   3.2547169811320754E-002   1.4150943396226416E-003   3.5253472650316297E-007
   3.3490566037735849E-002   1.4150943396226416E-003   3.4023864531623503E-007
   3.4433962264150943E-002   1.4150943396226416E-003   3.2671622408292851E-007
   3.5377358490566037E-002   1.4150943396226416E-003   3.1190087219795511E-007
   3.6320754716981131E-002   1.4150943396226416E-003   2.9572178922497987E-007
   3.7264150943396225E-002   1.4150943396226416E-003   2.7811037996609798E-007
   3.8207547169811319E-002   1.4150943396226416E-003   2.5900878485027700E-007
   3.9150943396226413E-002   1.4150943396226416E-003   2.3838116812499517E-007
   4.0094339622641507E-002   1.4150943396226416E-003   2.1622862874040481E-007
   4.1037735849056602E-002   1.4150943396226416E-003   1.9260888630309664E-007
   4.1981132075471696E-002   1.4150943396226416E-003   1.6766224485295968E-007
   4.2924528301886790E-002   1.4150943396226416E-003   1.4164570814089477E-007
   4.3867924528301884E-002   1.4150943396226416E-003   1.1497735644410365E-007
   4.4811320754716978E-002   1.4150943396226416E-003   8.8292721821928706E-008
   4.5754716981132072E-002   1.4150943396226416E-003   6.2512760753580704E-008
   4.6698113207547166E-002   1.4150943396226416E-003   3.8917128693876226E-008
   4.7641509433962261E-002   1.4150943396226416E-003   1.9201792180975622E-008
   4.8584905660377355E-002   1.4150943396226416E-003   5.4576490633396536E-009
   4.9528301886792449E-002   1.4150943396226416E-003   0.0000000000000000     
   5.0000000000000003E-002   1.4150943396226416E-003   0.0000000000000000     
   0.0000000000000000        2.3584905660377362E-003   0.0000000000000000     
   4.7169811320754717E-004   2.3584905660377362E-003   5.0364134593585418E-009
   1.4150943396226416E-003   2.3584905660377362E-003   1.8067739612156547E-008
   2.3584905660377362E-003   2.3584905660377362E-003   3.8920818029786618E-008
   3.3018867924528303E-003   2.3584905660377362E-003   6.6702834000167824E-008
   4.2452830188679245E-003   2.3584905660377362E-003   1.0009939485980892E-007
   5.1886792452830186E-003   2.3584905660377362E-003   1.3771059881286105E-007
   6.1320754716981127E-003   2.3584905660377362E-003   1.7819078612681023E-007
   7.0754716981132068E-003   2.3584905660377362E-003   2.2031095134147154E-007
   8.0188679245283018E-003   2.3584905660377362E-003   2.6298508023028739E-007
   8.9622641509433960E-003   2.3584905660377362E-003   3.0527809545390067E-007
   9.9056603773584901E-003   2.3584905660377362E-003   3.4640433305511551E-007
   1.0849056603773584E-002   2.3584905660377362E-003   3.8572081997932943E-007
   1.1792452830188678E-002   2.3584905660377362E-003   4.2271756251894872E-007
   1.2735849056603772E-002   2.3584905660377362E-003   4.5700611806453400E-007
   1.3679245283018867E-002   2.3584905660377362E-003   4.8830722758597296E-007
   1.4622641509433961E-002   2.3584905660377362E-003   5.1643801399621777E-007
   1.5566037735849055E-002   2.3584905660377362E-003   5.4129910157069801E-007
   1.6509433962264151E-002   2.3584905660377362E-003   5.6286192437553607E-007
   1.7452830188679245E-002   2.3584905660377362E-003   5.8115643465909188E-007
   1.8396226415094339E-002   2.3584905660377362E-003   5.9625937859388374E-007
   1.9339622641509433E-002   2.3584905660377362E-003   6.0828326885004885E-007
   2.0283018867924527E-002   2.3584905660377362E-003   6.1736614830943408E-007
   2.1226415094339621E-002   2.3584905660377362E-003   6.2366221194457206E-007
   2.2169811320754716E-002   2.3584905660377362E-003   6.2733333540746427E-007
   2.3113207547169810E-002   2.3584905660377362E-003   6.2854146178246558E-007
   2.4056603773584904E-002   2.3584905660377362E-003   6.2744152391595748E-007
   2.4999999999999998E-002   2.3584905660377362E-003   6.2417554299607411E-007
   2.5943396226415092E-002   2.3584905660377362E-003   6.1886913256478755E-007
   2.6886792452830186E-002   2.3584905660377362E-003   6.1162905318348071E-007
   2.7830188679245280E-002   2.3584905660377362E-003   6.0254095413438004E-007
   2.8773584905660374E-002   2.3584905660377362E-003   5.9166766680750193E-007
   2.9716981132075469E-002   2.3584905660377362E-003   5.7904822969389682E-007
   3.0660377358490563E-002   2.3584905660377362E-003   5.6469770421780034E-007
   3.1603773584905660E-002   2.3584905660377362E-003   5.4860786675086800E-007
   3.2547169811320754E-002   2.3584905660377362E-003   5.3074889572544134E-007
   3.3490566037735849E-002   2.3584905660377362E-003   5.1107220903299760E-007
   3.4433962264150943E-002   2.3584905660377362E-003   4.8951465684954201E-007
   3.5377358490566037E-002   2.3584905660377362E-003   4.6600434210801792E-007
   3.6320754716981131E-002   2.3584905660377362E-003   4.4046842771981864E-007
   3.7264150943396225E-002   2.3584905660377362E-003   4.1284340022915871E-007
   3.8207547169811319E-002   2.3584905660377362E-003   3.8308839700857084E-007
   3.9150943396226413E-002   2.3584905660377362E-003   3.5120236945144488E-007
   4.0094339622641507E-002   2.3584905660377362E-003   3.1724604209594676E-007
   4.1037735849056602E-002   2.3584905660377362E-003   2.8136981599207839E-007
   4.1981132075471696E-002   2.3584905660377362E-003   2.4384889966439584E-007
   4.2924528301886790E-002   2.3584905660377362E-003   2.0512691110612082E-007
   4.3867924528301884E-002   2.3584905660377362E-003   1.6586872662343735E-007
   4.4811320754716978E-002   2.3584905660377362E-003   1.2702205343056455E-007
   4.5754716981132072E-002   2.3584905660377362E-003   8.9884761020622467E-008
   4.6698113207547166E-002   2.3584905660377362E-003   5.6171063361159110E-008
   4.7641509433962261E-002   2.3584905660377362E-003   2.8062013194308399E-008
   4.8584905660377355E-002   2.3584905660377362E-003   8.2303029495533238E-009
   4.9528301886792449E-002   2.3584905660377362E-003   0.0000000000000000     
   5.0000000000000003E-002   2.3584905660377362E-003   0.0000000000000000     
   0.0000000000000000        3.3018867924528303E-003   0.0000000000000000     
   4.7169811320754717E-004   3.3018867924528303E-003   6.9622162392553201E-009
   1.4150943396226416E-003   3.3018867924528303E-003   2.5117796997418689E-008
   2.3584905660377362E-003   3.3018867924528303E-003   5.2922809585143428E-008
   3.3018867924528303E-003   3.3018867924528303E-003   8.8929061900759094E-008
   4.2452830188679245E-003   3.3018867924528303E-003   1.3156456854711104E-007
   5.1886792452830186E-003   3.3018867924528303E-003   1.7921925233537714E-007
   6.1320754716981127E-003   3.3018867924528303E-003   2.3033717565302535E-007
   7.0754716981132068E-003   3.3018867924528303E-003   2.8347475954808086E-007
   8.0188679245283018E-003   3.3018867924528303E-003   3.3733451352725506E-007
   8.9622641509433960E-003   3.3018867924528303E-003   3.9078136709454332E-007
   9.9056603773584901E-003   3.3018867924528303E-003   4.4284728233248866E-007
   1.0849056603773584E-002   3.3018867924528303E-003   4.9272827313219889E-007
   1.1792452830188678E-002   3.3018867924528303E-003   5.3977652657101951E-007
   1.2735849056603772E-002   3.3018867924528303E-003   5.8348938301804522E-007
   1.3679245283018867E-002   3.3018867924528303E-003   6.2349635552380767E-007
   1.4622641509433961E-002   3.3018867924528303E-003   6.5954500946653537E-007
   1.5566037735849055E-002   3.3018867924528303E-003   6.9148629544533648E-007
   1.6509433962264151E-002   3.3018867924528303E-003   7.1925977967011851E-007
   1.7452830188679245E-002   3.3018867924528303E-003   7.4287911332196257E-007
   1.8396226415094339E-002   3.3018867924528303E-003   7.6241800616495552E-007
   1.9339622641509433E-002   3.3018867924528303E-003   7.7799690830775673E-007
   2.0283018867924527E-002   3.3018867924528303E-003   7.8977055191547072E-007
   2.1226415094339621E-002   3.3018867924528303E-003   7.9791646327328218E-007
   2.2169811320754716E-002   3.3018867924528303E-003   8.0262451285598866E-007
   2.3113207547169810E-002   3.3018867924528303E-003   8.0408743217826062E-007
   2.4056603773584904E-002   3.3018867924528303E-003   8.0249210582795225E-007
   2.4999999999999998E-002   3.3018867924528303E-003   7.9801248731036336E-007
   2.5943396226415092E-002   3.3018867924528303E-003   7.9080507512252162E-007
   2.6886792452830186E-002   3.3018867924528303E-003   7.8100552043532489E-007
   2.7830188679245280E-002   3.3018867924528303E-003   7.6872567131007525E-007
   2.8773584905660374E-002   3.3018867924528303E-003   7.5405143237954065E-007
   2.9716981132075469E-002   3.3018867924528303E-003   7.3704162617925569E-007
   3.0660377358490563E-002   3.3018867924528303E-003   7.1772794136080189E-007
   3.1603773584905660E-002   3.3018867924528303E-003   6.9611607329669125E-007
   3.2547169811320754E-002   3.3018867924528303E-003   6.7218819905625841E-007
   3.3490566037735849E-002   3.3018867924528303E-003   6.4590697136123818E-007
   3.4433962264150943E-002   3.3018867924528303E-003   6.1722127179320694E-007
   3.5377358490566037E-002   3.3018867924528303E-003   5.8607403363583177E-007
   3.6320754716981131E-002   3.3018867924528303E-003   5.5241252992078942E-007
   3.7264150943396225E-002   3.3018867924528303E-003   5.1620162225094620E-007
   3.8207547169811319E-002   3.3018867924528303E-003   4.7744057780107780E-007
   3.9150943396226413E-002   3.3018867924528303E-003   4.3618417697066507E-007
   4.0094339622641507E-002   3.3018867924528303E-003   3.9256893341624265E-007
   4.1037735849056602E-002   3.3018867924528303E-003   3.4684529483950207E-007
   4.1981132075471696E-002   3.3018867924528303E-003   2.9941662335281918E-007
   4.2924528301886790E-002   3.3018867924528303E-003   2.5088546638029821E-007
   4.3867924528301884E-002   3.3018867924528303E-003   2.0210698130312650E-007
   4.4811320754716978E-002   3.3018867924528303E-003   1.5424832994162482E-007
   4.5754716981132072E-002   3.3018867924528303E-003   1.0885196157505161E-007
   4.6698113207547166E-002   3.3018867924528303E-003   6.7901031530579043E-008
   4.7641509433962261E-002   3.3018867924528303E-003   3.3887774018529567E-008
   4.8584905660377355E-002   3.3018867924528303E-003   9.9132937801235366E-009
   4.9528301886792449E-002   3.3018867924528303E-003   0.0000000000000000     
   5.0000000000000003E-002   3.3018867924528303E-003   0.0000000000000000     
   0.0000000000000000        4.2452830188679245E-003   0.0000000000000000     
   4.7169811320754717E-004   4.2452830188679245E-003   8.5615097673586077E-009
   1.4150943396226416E-003   4.2452830188679245E-003   3.0823972833787472E-008
   2.3584905660377362E-003   4.2452830188679245E-003   6.4364440646142674E-008
   3.3018867924528303E-003   4.2452830188679245E-003   1.0718588235977683E-007
   4.2452830188679245E-003   4.2452830188679245E-003   1.5739901873366347E-007
   5.1886792452830186E-003   4.2452830188679245E-003   2.1318427546812229E-007
   6.1320754716981127E-003   4.2452830188679245E-003   2.7281778210301221E-007
   7.0754716981132068E-003   4.2452830188679245E-003   3.3470330643223030E-007
   8.0188679245283018E-003   4.2452830188679245E-003   3.9739840623778278E-007
   8.9622641509433960E-003   4.2452830188679245E-003   4.5963070114391693E-007
   9.9056603773584901E-003   4.2452830188679245E-003   5.2030465027336427E-007
   1.0849056603773584E-002   4.2452830188679245E-003   5.7850084655132956E-007
   1.1792452830188678E-002   4.2452830188679245E-003   6.3346980618354389E-007
   1.2735849056603772E-002   4.2452830188679245E-003   6.8462185552292252E-007
   1.3679245283018867E-002   4.2452830188679245E-003   7.3151436083759859E-007
   1.4622641509433961E-002   4.2452830188679245E-003   7.7383725675659847E-007
   1.5566037735849055E-002   4.2452830188679245E-003   8.1139760712725228E-007
   1.6509433962264151E-002   4.2452830188679245E-003   8.4410376614149272E-007
   1.7452830188679245E-002   4.2452830188679245E-003   8.7194958258624658E-007
   1.8396226415094339E-002   4.2452830188679245E-003   8.9499899311085221E-007
   1.9339622641509433E-002   4.2452830188679245E-003   9.1337127203606856E-007
   2.0283018867924527E-002   4.2452830188679245E-003   9.2722713996346734E-007
   2.1226415094339621E-002   4.2452830188679245E-003   9.3675588095760094E-007
   2.2169811320754716E-002   4.2452830188679245E-003   9.4216356122004933E-007
   2.3113207547169810E-002   4.2452830188679245E-003   9.4366230391783019E-007
   2.4056603773584904E-002   4.2452830188679245E-003   9.4146053755766765E-007
   2.4999999999999998E-002   4.2452830188679245E-003   9.3575541729191663E-007
   2.5943396226415092E-002   4.2452830188679245E-003   9.2672755332476287E-007
   2.6886792452830186E-002   4.2452830188679245E-003   9.1453663930226764E-007
   2.7830188679245280E-002   4.2452830188679245E-003   8.9931792352926686E-007
   2.8773584905660374E-002   4.2452830188679245E-003   8.8117978275638376E-007
   2.9716981132075469E-002   4.2452830188679245E-003   8.6020253285237541E-007
   3.0660377358490563E-002   4.2452830188679245E-003   8.3643857161312321E-007
   3.1603773584905660E-002   4.2452830188679245E-003   8.0991397063441458E-007
   3.2547169811320754E-002   4.2452830188679245E-003   7.8063166693036805E-007
   3.3490566037735849E-002   4.2452830188679245E-003   7.4857644751042991E-007
   3.4433962264150943E-002   4.2452830188679245E-003   7.1372197308805757E-007
   3.5377358490566037E-002   4.2452830188679245E-003   6.7604014962842753E-007
   3.6320754716981131E-002   4.2452830188679245E-003   6.3551322684309827E-007
   3.7264150943396225E-002   4.2452830188679245E-003   5.9214907725655861E-007
   3.8207547169811319E-002   4.2452830188679245E-003   5.4600018087083940E-007
   3.9150943396226413E-002   4.2452830188679245E-003   4.9718689566634672E-007
   4.0094339622641507E-002   4.2452830188679245E-003   4.4592561143695294E-007
   4.1037735849056602E-002   4.2452830188679245E-003   3.9256233214086402E-007
   4.1981132075471696E-002   4.2452830188679245E-003   3.3761207044932118E-007
   4.2924528301886790E-002   4.2452830188679245E-003   2.8180413318174469E-007
   4.3867924528301884E-002   4.2452830188679245E-003   2.2613294056152776E-007
   4.4811320754716978E-002   4.2452830188679245E-003   1.7191369607291164E-007
   4.5754716981132072E-002   4.2452830188679245E-003   1.2084288173480255E-007
   4.6698113207547166E-002   4.2452830188679245E-003   7.5066520973675926E-008
   4.7641509433962261E-002   4.2452830188679245E-003   3.7265741464214677E-008
   4.8584905660377355E-002   4.2452830188679245E-003   1.0794895038203659E-008
   4.9528301886792449E-002   4.2452830188679245E-003   0.0000000000000000     
   5.0000000000000003E-002   4.2452830188679245E-003   0.0000000000000000     
   0.0000000000000000        5.1886792452830186E-003   0.0000000000000000     
   4.7169811320754717E-004   5.1886792452830186E-003   9.8144990023035339E-009
   1.4150943396226416E-003   5.1886792452830186E-003   3.5263984599245581E-008
   2.3584905660377362E-003   5.1886792452830186E-003   7.3357102512739284E-008
   3.3018867924528303E-003   5.1886792452830186E-003   1.2164435700903215E-007
   4.2452830188679245E-003   5.1886792452830186E-003   1.7792890306149054E-007
   5.1886792452830186E-003   5.1886792452830186E-003   2.4018338236084256E-007
   6.1320754716981127E-003   5.1886792452830186E-003   3.0653237969152811E-007
   7.0754716981132068E-003   5.1886792452830186E-003   3.7525774838190849E-007
   8.0188679245283018E-003   5.1886792452830186E-003   4.4481105673324798E-007
   8.9622641509433960E-003   5.1886792452830186E-003   5.1382397424138564E-007
   9.9056603773584901E-003   5.1886792452830186E-003   5.8111319250801058E-007
   1.0849056603773584E-002   5.1886792452830186E-003   6.4567961033197006E-007
   1.1792452830188678E-002   5.1886792452830186E-003   7.0670257336914941E-007
   1.2735849056603772E-002   5.1886792452830186E-003   7.6353021599001539E-007
   1.3679245283018867E-002   5.1886792452830186E-003   8.1566693128448902E-007
   1.4622641509433961E-002   5.1886792452830186E-003   8.6275887054372846E-007
   1.5566037735849055E-002   5.1886792452830186E-003   9.0457822531094313E-007
   1.6509433962264151E-002   5.1886792452830186E-003   9.4100690653219634E-007
   1.7452830188679245E-002   5.1886792452830186E-003   9.7202011576399363E-007
   1.8396226415094339E-002   5.1886792452830186E-003   9.9767020279975189E-007
   1.9339622641509433E-002   5.1886792452830186E-003   1.0180711193655512E-006
   2.0283018867924527E-002   5.1886792452830186E-003   1.0333837073761404E-006
   2.1226415094339621E-002   5.1886792452830186E-003   1.0438020029757770E-006
   2.2169811320754716E-002   5.1886792452830186E-003   1.0495406766907380E-006
   2.3113207547169810E-002   5.1886792452830186E-003   1.0508236015702924E-006
   2.4056603773584904E-002   5.1886792452830186E-003   1.0478735559946996E-006
   2.4999999999999998E-002   5.1886792452830186E-003   1.0409046919720349E-006
   2.5943396226415092E-002   5.1886792452830186E-003   1.0301167649245300E-006
   2.6886792452830186E-002   5.1886792452830186E-003   1.0156899024575306E-006
   2.7830188679245280E-002   5.1886792452830186E-003   9.9778062549975783E-007
   2.8773584905660374E-002   5.1886792452830186E-003   9.7651925788214624E-007
   2.9716981132075469E-002   5.1886792452830186E-003   9.5200877267857536E-007
   3.0660377358490563E-002   5.1886792452830186E-003   9.2432516244874968E-007
   3.1603773584905660E-002   5.1886792452830186E-003   8.9351944876848126E-007
   3.2547169811320754E-002   5.1886792452830186E-003   8.5962147594671927E-007
   3.3490566037735849E-002   5.1886792452830186E-003   8.2264567226423727E-007
   3.4433962264150943E-002   5.1886792452830186E-003   7.8259900726459851E-007
   3.5377358490566037E-002   5.1886792452830186E-003   7.3949142284038446E-007
   3.6320754716981131E-002   5.1886792452830186E-003   6.9334906597748893E-007
   3.7264150943396225E-002   5.1886792452830186E-003   6.4423069654093830E-007
   3.8207547169811319E-002   5.1886792452830186E-003   5.9224767613710802E-007
   3.9150943396226413E-002   5.1886792452830186E-003   5.3758795121533808E-007
   4.0094339622641507E-002   5.1886792452830186E-003   4.8054440950330798E-007
   4.1037735849056602E-002   5.1886792452830186E-003   4.2154789672750284E-007
   4.1981132075471696E-002   5.1886792452830186E-003   3.6120502412163985E-007
   4.2924528301886790E-002   5.1886792452830186E-003   3.0034070232412796E-007
   4.3867924528301884E-002   5.1886792452830186E-003   2.4004521214374793E-007