 title=me
 variables=x,y,me
 zone i=         171 ,j=         171
 
   0.0000000000000000        0.0000000000000000        0.0000000000000000     
   6.4112426035502961E-004   0.0000000000000000        0.0000000000000000     
   1.9233727810650889E-003   0.0000000000000000        0.0000000000000000     
   3.2056213017751479E-003   0.0000000000000000        0.0000000000000000     
   4.4878698224852069E-003   0.0000000000000000        0.0000000000000000     
   5.7701183431952659E-003   0.0000000000000000        0.0000000000000000     
   7.0523668639053249E-003   0.0000000000000000        0.0000000000000000     
   8.3346153846153848E-003   0.0000000000000000        0.0000000000000000     
   9.6168639053254446E-003   0.0000000000000000        0.0000000000000000     
   1.0899112426035504E-002   0.0000000000000000        0.0000000000000000     
   1.2181360946745564E-002   0.0000000000000000        0.0000000000000000     
   1.3463609467455624E-002   0.0000000000000000        0.0000000000000000     
   1.4745857988165684E-002   0.0000000000000000        0.0000000000000000     
   1.6028106508875744E-002   0.0000000000000000        0.0000000000000000     
   1.7310355029585802E-002   0.0000000000000000        0.0000000000000000     
   1.8592603550295860E-002   0.0000000000000000        0.0000000000000000     
   1.9874852071005918E-002   0.0000000000000000        0.0000000000000000     
   2.1157100591715976E-002   0.0000000000000000        0.0000000000000000     
   2.2439349112426035E-002   0.0000000000000000        0.0000000000000000     
   2.3721597633136093E-002   0.0000000000000000        0.0000000000000000     
   2.5003846153846151E-002   0.0000000000000000        0.0000000000000000     
   2.6286094674556209E-002   0.0000000000000000        0.0000000000000000     
   2.7568343195266267E-002   0.0000000000000000        0.0000000000000000     
   2.8850591715976325E-002   0.0000000000000000        0.0000000000000000     
   3.0132840236686383E-002   0.0000000000000000        0.0000000000000000     
   3.1415088757396445E-002   0.0000000000000000        0.0000000000000000     
   3.2697337278106503E-002   0.0000000000000000        0.0000000000000000     
   3.3979585798816561E-002   0.0000000000000000        0.0000000000000000     
   3.5261834319526619E-002   0.0000000000000000        0.0000000000000000     
   3.6544082840236677E-002   0.0000000000000000        0.0000000000000000     
   3.7826331360946736E-002   0.0000000000000000        0.0000000000000000     
   3.9108579881656794E-002   0.0000000000000000        0.0000000000000000     
   4.0390828402366852E-002   0.0000000000000000        0.0000000000000000     
   4.1673076923076910E-002   0.0000000000000000        0.0000000000000000     
   4.2955325443786968E-002   0.0000000000000000        0.0000000000000000     
   4.4237573964497026E-002   0.0000000000000000        0.0000000000000000     
   4.5519822485207084E-002   0.0000000000000000        0.0000000000000000     
   4.6802071005917142E-002   0.0000000000000000        0.0000000000000000     
   4.8084319526627201E-002   0.0000000000000000        0.0000000000000000     
   4.9366568047337259E-002   0.0000000000000000        0.0000000000000000     
   5.0648816568047317E-002   0.0000000000000000        0.0000000000000000     
   5.1931065088757375E-002   0.0000000000000000        0.0000000000000000     
   5.3213313609467433E-002   0.0000000000000000        0.0000000000000000     
   5.4495562130177491E-002   0.0000000000000000        0.0000000000000000     
   5.5777810650887549E-002   0.0000000000000000        0.0000000000000000     
   5.7060059171597607E-002   0.0000000000000000        0.0000000000000000     
   5.8342307692307666E-002   0.0000000000000000        0.0000000000000000     
   5.9624556213017724E-002   0.0000000000000000        0.0000000000000000     
   6.0906804733727782E-002   0.0000000000000000        0.0000000000000000     
   6.2189053254437840E-002   0.0000000000000000        0.0000000000000000     
   6.3471301775147898E-002   0.0000000000000000        0.0000000000000000     
   6.4753550295857956E-002   0.0000000000000000        0.0000000000000000     
   6.6035798816568014E-002   0.0000000000000000        0.0000000000000000     
   6.7318047337278072E-002   0.0000000000000000        0.0000000000000000     
   6.8600295857988131E-002   0.0000000000000000        0.0000000000000000     
   6.9882544378698189E-002   0.0000000000000000        0.0000000000000000     
   7.1164792899408247E-002   0.0000000000000000        0.0000000000000000     
   7.2447041420118305E-002   0.0000000000000000        0.0000000000000000     
   7.3729289940828363E-002   0.0000000000000000        0.0000000000000000     
   7.5011538461538421E-002   0.0000000000000000        0.0000000000000000     
   7.6293786982248479E-002   0.0000000000000000        0.0000000000000000     
   7.7576035502958537E-002   0.0000000000000000        0.0000000000000000     
   7.8858284023668596E-002   0.0000000000000000        0.0000000000000000     
   8.0140532544378654E-002   0.0000000000000000        0.0000000000000000     
   8.1422781065088712E-002   0.0000000000000000        0.0000000000000000     
   8.2705029585798770E-002   0.0000000000000000        0.0000000000000000     
   8.3987278106508828E-002   0.0000000000000000        0.0000000000000000     
   8.5269526627218886E-002   0.0000000000000000        0.0000000000000000     
   8.6551775147928944E-002   0.0000000000000000        0.0000000000000000     
   8.7834023668639002E-002   0.0000000000000000        0.0000000000000000     
   8.9116272189349061E-002   0.0000000000000000        0.0000000000000000     
   9.0398520710059119E-002   0.0000000000000000        0.0000000000000000     
   9.1680769230769177E-002   0.0000000000000000        0.0000000000000000     
   9.2963017751479235E-002   0.0000000000000000        0.0000000000000000     
   9.4245266272189293E-002   0.0000000000000000        0.0000000000000000     
   9.5527514792899351E-002   0.0000000000000000        0.0000000000000000     
   9.6809763313609409E-002   0.0000000000000000        0.0000000000000000     
   9.8092011834319467E-002   0.0000000000000000        0.0000000000000000     
   9.9374260355029526E-002   0.0000000000000000        0.0000000000000000     
  0.10065650887573958        0.0000000000000000        0.0000000000000000     
  0.10193875739644964        0.0000000000000000        0.0000000000000000     
  0.10322100591715970        0.0000000000000000        0.0000000000000000     
  0.10450325443786976        0.0000000000000000        0.0000000000000000     
  0.10578550295857982        0.0000000000000000        0.0000000000000000     
  0.10706775147928987        0.0000000000000000        0.0000000000000000     
  0.10834999999999993        0.0000000000000000        0.0000000000000000     
  0.10963224852070999        0.0000000000000000        0.0000000000000000     
  0.11091449704142005        0.0000000000000000        0.0000000000000000     
  0.11219674556213011        0.0000000000000000        0.0000000000000000     
  0.11347899408284016        0.0000000000000000        0.0000000000000000     
  0.11476124260355022        0.0000000000000000        0.0000000000000000     
  0.11604349112426028        0.0000000000000000        0.0000000000000000     
  0.11732573964497034        0.0000000000000000        0.0000000000000000     
  0.11860798816568040        0.0000000000000000        0.0000000000000000     
  0.11989023668639046        0.0000000000000000        0.0000000000000000     
  0.12117248520710051        0.0000000000000000        0.0000000000000000     
  0.12245473372781057        0.0000000000000000        0.0000000000000000     
  0.12373698224852063        0.0000000000000000        0.0000000000000000     
  0.12501923076923069        0.0000000000000000        0.0000000000000000     
  0.12630147928994076        0.0000000000000000        0.0000000000000000     
  0.12758372781065083        0.0000000000000000        0.0000000000000000     
  0.12886597633136090        0.0000000000000000        0.0000000000000000     
  0.13014822485207098        0.0000000000000000        0.0000000000000000     
  0.13143047337278105        0.0000000000000000        0.0000000000000000     
  0.13271272189349112        0.0000000000000000        0.0000000000000000     
  0.13399497041420119        0.0000000000000000        0.0000000000000000     
  0.13527721893491126        0.0000000000000000        0.0000000000000000     
  0.13655946745562134        0.0000000000000000        0.0000000000000000     
  0.13784171597633141        0.0000000000000000        0.0000000000000000     
  0.13912396449704148        0.0000000000000000        0.0000000000000000     
  0.14040621301775155        0.0000000000000000        0.0000000000000000     
  0.14168846153846162        0.0000000000000000        0.0000000000000000     
  0.14297071005917170        0.0000000000000000        0.0000000000000000     
  0.14425295857988177        0.0000000000000000        0.0000000000000000     
  0.14553520710059184        0.0000000000000000        0.0000000000000000     
  0.14681745562130191        0.0000000000000000        0.0000000000000000     
  0.14809970414201198        0.0000000000000000        0.0000000000000000     
  0.14938195266272206        0.0000000000000000        0.0000000000000000     
  0.15066420118343213        0.0000000000000000        0.0000000000000000     
  0.15194644970414220        0.0000000000000000        0.0000000000000000     
  0.15322869822485227        0.0000000000000000        0.0000000000000000     
  0.15451094674556234        0.0000000000000000        0.0000000000000000     
  0.15579319526627242        0.0000000000000000        0.0000000000000000     
  0.15707544378698249        0.0000000000000000        0.0000000000000000     
  0.15835769230769256        0.0000000000000000        0.0000000000000000     
  0.15963994082840263        0.0000000000000000        0.0000000000000000     
  0.16092218934911270        0.0000000000000000        0.0000000000000000     
  0.16220443786982278        0.0000000000000000        0.0000000000000000     
  0.16348668639053285        0.0000000000000000        0.0000000000000000     
  0.16476893491124292        0.0000000000000000        0.0000000000000000     
  0.16605118343195299        0.0000000000000000        0.0000000000000000     
  0.16733343195266306        0.0000000000000000        0.0000000000000000     
  0.16861568047337314        0.0000000000000000        0.0000000000000000     
  0.16989792899408321        0.0000000000000000        0.0000000000000000     
  0.17118017751479328        0.0000000000000000        0.0000000000000000     
  0.17246242603550335        0.0000000000000000        0.0000000000000000     
  0.17374467455621342        0.0000000000000000        0.0000000000000000     
  0.17502692307692350        0.0000000000000000        0.0000000000000000     
  0.17630917159763357        0.0000000000000000        0.0000000000000000     
  0.17759142011834364        0.0000000000000000        0.0000000000000000     
  0.17887366863905371        0.0000000000000000        0.0000000000000000     
  0.18015591715976378        0.0000000000000000        0.0000000000000000     
  0.18143816568047386        0.0000000000000000        0.0000000000000000     
  0.18272041420118393        0.0000000000000000        0.0000000000000000     
  0.18400266272189400        0.0000000000000000        0.0000000000000000     
  0.18528491124260407        0.0000000000000000        0.0000000000000000     
  0.18656715976331414        0.0000000000000000        0.0000000000000000     
  0.18784940828402422        0.0000000000000000        0.0000000000000000     
  0.18913165680473429        0.0000000000000000        0.0000000000000000     
  0.19041390532544436        0.0000000000000000        0.0000000000000000     
  0.19169615384615443        0.0000000000000000        0.0000000000000000     
  0.19297840236686450        0.0000000000000000        0.0000000000000000     
  0.19426065088757458        0.0000000000000000        0.0000000000000000     
  0.19554289940828465        0.0000000000000000        0.0000000000000000     
  0.19682514792899472        0.0000000000000000        0.0000000000000000     
  0.19810739644970479        0.0000000000000000        0.0000000000000000     
  0.19938964497041486        0.0000000000000000        0.0000000000000000     
  0.20067189349112494        0.0000000000000000        0.0000000000000000     
  0.20195414201183501        0.0000000000000000        0.0000000000000000     
  0.20323639053254508        0.0000000000000000        0.0000000000000000     
  0.20451863905325515        0.0000000000000000        0.0000000000000000     
  0.20580088757396522        0.0000000000000000        0.0000000000000000     
  0.20708313609467530        0.0000000000000000        0.0000000000000000     
  0.20836538461538537        0.0000000000000000        0.0000000000000000     
  0.20964763313609544        0.0000000000000000        0.0000000000000000     
  0.21092988165680551        0.0000000000000000        0.0000000000000000     
  0.21221213017751558        0.0000000000000000        0.0000000000000000     
  0.21349437869822566        0.0000000000000000        0.0000000000000000     
  0.21477662721893573        0.0000000000000000        0.0000000000000000     
  0.21605887573964580        0.0000000000000000        0.0000000000000000     
  0.21670000000000000        0.0000000000000000        0.0000000000000000     
   0.0000000000000000        6.4112426035502961E-004   0.0000000000000000     
   6.4112426035502961E-004   6.4112426035502961E-004  -1.8420392493080799E-007
   1.9233727810650889E-003   6.4112426035502961E-004  -5.5660747994251761E-007
   3.2056213017751479E-003   6.4112426035502961E-004  -9.2829604058046660E-007
   4.4878698224852069E-003   6.4112426035502961E-004  -1.2235713713433129E-006
   5.7701183431952659E-003   6.4112426035502961E-004  -1.4266729020247946E-006
   7.0523668639053249E-003   6.4112426035502961E-004  -1.5456074415321009E-006
   8.3346153846153848E-003   6.4112426035502961E-004  -1.5967728769625578E-006
   9.6168639053254446E-003   6.4112426035502961E-004  -1.5976555126087826E-006
   1.0899112426035504E-002   6.4112426035502961E-004  -1.5632986725423027E-006
   1.2181360946745564E-002   6.4112426035502961E-004  -1.5055804662147876E-006
   1.3463609467455624E-002   6.4112426035502961E-004  -1.4337607580584178E-006
   1.4745857988165684E-002   6.4112426035502961E-004  -1.3547488408592565E-006
   1.6028106508875744E-002   6.4112426035502961E-004  -1.2735178440349010E-006
   1.7310355029585802E-002   6.4112426035502961E-004  -1.1935172022859215E-006
   1.8592603550295860E-002   6.4112426035502961E-004  -1.1170233052915441E-006
   1.9874852071005918E-002   6.4112426035502961E-004  -1.0454281782467110E-006
   2.1157100591715976E-002   6.4112426035502961E-004  -9.7947417741548399E-007
   2.2439349112426035E-002   6.4112426035502961E-004  -9.1944093895056705E-007
   2.3721597633136093E-002   6.4112426035502961E-004  -8.6529092224613803E-007
   2.5003846153846151E-002   6.4112426035502961E-004  -8.1678001584912055E-007
   2.6286094674556209E-002   6.4112426035502961E-004  -7.7353943573960640E-007
   2.7568343195266267E-002   6.4112426035502961E-004  -7.3513465770796866E-007
   2.8850591715976325E-002   6.4112426035502961E-004  -7.0110645579233046E-007
   3.0132840236686383E-002   6.4112426035502961E-004  -6.7099835301697790E-007
   3.1415088757396445E-002   6.4112426035502961E-004  -6.4437401541272887E-007
   3.2697337278106503E-002   6.4112426035502961E-004  -6.2082739693104222E-007
   3.3979585798816561E-002   6.4112426035502961E-004  -5.9998780749682241E-007
   3.5261834319526619E-002   6.4112426035502961E-004  -5.8152154284618524E-007
   3.6544082840236677E-002   6.4112426035502961E-004  -5.6513128293542674E-007
   3.7826331360946736E-002   6.4112426035502961E-004  -5.5055412652677170E-007
   3.9108579881656794E-002   6.4112426035502961E-004  -5.3755887012299525E-007
   4.0390828402366852E-002   6.4112426035502961E-004  -5.2594294540108222E-007
   4.1673076923076910E-002   6.4112426035502961E-004  -5.1552928754535699E-007
   4.2955325443786968E-002   6.4112426035502961E-004  -5.0616330533830612E-007
   4.4237573964497026E-002   6.4112426035502961E-004  -4.9771005291711122E-007
   4.5519822485207084E-002   6.4112426035502961E-004  -4.9005165457784920E-007
   4.6802071005917142E-002   6.4112426035502961E-004  -4.8308500202545948E-007
   4.8084319526627201E-002   6.4112426035502961E-004  -4.7671972292114314E-007
   4.9366568047337259E-002   6.4112426035502961E-004  -4.7087640738218156E-007
   5.0648816568047317E-002   6.4112426035502961E-004  -4.6548507227519014E-007
   5.1931065088757375E-002   6.4112426035502961E-004  -4.6048384010449751E-007
   5.3213313609467433E-002   6.4112426035502961E-004  -4.5581780860879244E-007
   5.4495562130177491E-002   6.4112426035502961E-004  -4.5143808792171036E-007
   5.5777810650887549E-002   6.4112426035502961E-004  -4.4730098372276555E-007
   5.7060059171597607E-002   6.4112426035502961E-004  -4.4336730687721734E-007
   5.8342307692307666E-002   6.4112426035502961E-004  -4.3960179207818472E-007
   5.9624556213017724E-002   6.4112426035502961E-004  -4.3597261021246312E-007
   6.0906804733727782E-002   6.4112426035502961E-004  -4.3245096107767041E-007
   6.2189053254437840E-002   6.4112426035502961E-004  -4.2901073498151935E-007
   6.3471301775147898E-002   6.4112426035502961E-004  -4.2562823319580980E-007
   6.4753550295857956E-002   6.4112426035502961E-004  -4.2228193880799128E-007
   6.6035798816568014E-002   6.4112426035502961E-004  -4.1895233063765991E-007
   6.7318047337278072E-002   6.4112426035502961E-004  -4.1562173387880250E-007
   6.8600295857988131E-002   6.4112426035502961E-004  -4.1227420215513019E-007
   6.9882544378698189E-002   6.4112426035502961E-004  -4.0889542620634077E-007
   7.1164792899408247E-002   6.4112426035502961E-004  -4.0547266524066278E-007
   7.2447041420118305E-002   6.4112426035502961E-004  -4.0199469735306393E-007
   7.3729289940828363E-002   6.4112426035502961E-004  -3.9845178589967561E-007
   7.5011538461538421E-002   6.4112426035502961E-004  -3.9483565910078843E-007
   7.6293786982248479E-002   6.4112426035502961E-004  -3.9113950035023069E-007
   7.7576035502958537E-002   6.4112426035502961E-004  -3.8735794706000981E-007
   7.8858284023668596E-002   6.4112426035502961E-004  -3.8348709595186571E-007
   8.0140532544378654E-002   6.4112426035502961E-004  -3.7952451304100017E-007
   8.1422781065088712E-002   6.4112426035502961E-004  -3.7546924653421381E-007
   8.2705029585798770E-002   6.4112426035502961E-004  -3.7132184113749004E-007
   8.3987278106508828E-002   6.4112426035502961E-004  -3.6708435232052885E-007
   8.5269526627218886E-002   6.4112426035502961E-004  -3.6276035921250858E-007
   8.6551775147928944E-002   6.4112426035502961E-004  -3.5835497495119674E-007
   8.7834023668639002E-002   6.4112426035502961E-004  -3.5387485335912371E-007
   8.9116272189349061E-002   6.4112426035502961E-004  -3.4932819099321788E-007
   9.0398520710059119E-002   6.4112426035502961E-004  -3.4472472371298671E-007
   9.1680769230769177E-002   6.4112426035502961E-004  -3.4007571703583133E-007
   9.2963017751479235E-002   6.4112426035502961E-004  -3.3539394967410717E-007
   9.4245266272189293E-002   6.4112426035502961E-004  -3.3069368981743480E-007
   9.5527514792899351E-002   6.4112426035502961E-004  -3.2599066384383761E-007
   9.6809763313609409E-002   6.4112426035502961E-004  -3.2130201731399105E-007
   9.8092011834319467E-002   6.4112426035502961E-004  -3.1664626827934615E-007
   9.9374260355029526E-002   6.4112426035502961E-004  -3.1204325308836097E-007
  0.10065650887573958        6.4112426035502961E-004  -3.0751406510778368E-007
  0.10193875739644964        6.4112426035502961E-004  -3.0308098699067376E-007
  0.10322100591715970        6.4112426035502961E-004  -2.9876741741742029E-007
  0.10450325443786976        6.4112426035502961E-004  -2.9459779364207399E-007
  0.10578550295857982        6.4112426035502961E-004  -2.9059751177379582E-007
  0.10706775147928987        6.4112426035502961E-004  -2.8679284778499529E-007
  0.10834999999999993        6.4112426035502961E-004  -2.8321088410650929E-007
  0.10963224852070999        6.4112426035502961E-004  -2.7987944964372297E-007
  0.11091449704142005        6.4112426035502961E-004  -2.7682708591469959E-007
  0.11219674556213011        6.4112426035502961E-004  -2.7408306892914547E-007
  0.11347899408284016        6.4112426035502961E-004  -2.7167754278136056E-007
  0.11476124260355022        6.4112426035502961E-004  -2.6964152411124342E-007
  0.11604349112426028        6.4112426035502961E-004  -2.6800544718514280E-007
  0.11732573964497034        6.4112426035502961E-004  -2.6680113528432352E-007
  0.11860798816568040        6.4112426035502961E-004  -2.6606456851431114E-007
  0.11989023668639046        6.4112426035502961E-004  -2.6583375053405125E-007
  0.12117248520710051        6.4112426035502961E-004  -2.6614574726258420E-007
  0.12245473372781057        6.4112426035502961E-004  -2.6703745932490578E-007
  0.12373698224852063        6.4112426035502961E-004  -2.6854636729039446E-007
  0.12501923076923069        6.4112426035502961E-004  -2.7071097572745038E-007
  0.12630147928994076        6.4112426035502961E-004  -2.7357110097326595E-007
  0.12758372781065083        6.4112426035502961E-004  -2.7716806125192649E-007
  0.12886597633136090        6.4112426035502961E-004  -2.8154480987726370E-007
  0.13014822485207098        6.4112426035502961E-004  -2.8674603600429114E-007
  0.13143047337278105        6.4112426035502961E-004  -2.9281824260616677E-007
  0.13271272189349112        6.4112426035502961E-004  -2.9980980261830049E-007
  0.13399497041420119        6.4112426035502961E-004  -3.0777098911883332E-007
  0.13527721893491126        6.4112426035502961E-004  -3.1675397235505666E-007
  0.13655946745562134        6.4112426035502961E-004  -3.2681277428980709E-007
  0.13784171597633141        6.4112426035502961E-004  -3.3800316971324895E-007
  0.13912396449704148        6.4112426035502961E-004  -3.5038252165651129E-007
  0.14040621301775155        6.4112426035502961E-004  -3.6400953764741667E-007
  0.14168846153846162        6.4112426035502961E-004  -3.7894393236975995E-007
  0.14297071005917170        6.4112426035502961E-004  -3.9524598142522571E-007
  0.14425295857988177        6.4112426035502961E-004  -4.1297595036303605E-007
  0.14553520710059184        6.4112426035502961E-004  -4.3219338269423757E-007
  0.14681745562130191        6.4112426035502961E-004  -4.5295623077471437E-007
  0.14809970414201198        6.4112426035502961E-004  -4.7531981383465124E-007
  0.14938195266272206        6.4112426035502961E-004  -4.9933558849540591E-007
  0.15066420118343213        6.4112426035502961E-004  -5.2504971871719814E-007
  0.15194644970414220        6.4112426035502961E-004  -5.5250143456963370E-007
  0.15322869822485227        6.4112426035502961E-004  -5.8172117236476226E-007
  0.15451094674556234        6.4112426035502961E-004  -6.1272849284931156E-007
  0.15579319526627242        6.4112426035502961E-004  -6.4552977939911984E-007
  0.15707544378698249        6.4112426035502961E-004  -6.8011572421593171E-007
  0.15835769230769256        6.4112426035502961E-004  -7.1645861805570233E-007
  0.15963994082840263        6.4112426035502961E-004  -7.5450946734280998E-007
  0.16092218934911270        6.4112426035502961E-004  -7.9419497205202331E-007
  0.16220443786982278        6.4112426035502961E-004  -8.3541440823246739E-007
  0.16348668639053285        6.4112426035502961E-004  -8.7803647008264410E-007
  0.16476893491124292        6.4112426035502961E-004  -9.2189613819852132E-007
  0.16605118343195299        6.4112426035502961E-004  -9.6679165214183440E-007
  0.16733343195266306        6.4112426035502961E-004  -1.0124816765104056E-006
  0.16861568047337314        6.4112426035502961E-004  -1.0586827595456179E-006
  0.16989792899408321        6.4112426035502961E-004  -1.1050671908338051E-006
  0.17118017751479328        6.4112426035502961E-004  -1.1512613690155998E-006
  0.17246242603550335        6.4112426035502961E-004  -1.1968447898767535E-006
  0.17374467455621342        6.4112426035502961E-004  -1.2413497583813683E-006
  0.17502692307692350        6.4112426035502961E-004  -1.2842619132564053E-006
  0.17630917159763357        6.4112426035502961E-004  -1.3250216276379857E-006
  0.17759142011834364        6.4112426035502961E-004  -1.3630263161899553E-006
  0.17887366863905371        6.4112426035502961E-004  -1.3976336725408527E-006
  0.18015591715976378        6.4112426035502961E-004  -1.4281659359356270E-006
  0.18143816568047386        6.4112426035502961E-004  -1.4539152920711194E-006
  0.18272041420118393        6.4112426035502961E-004  -1.4741509051741196E-006
  0.18400266272189400        6.4112426035502961E-004  -1.4881338729377631E-006
  0.18528491124260407        6.4112426035502961E-004  -1.4951587393264603E-006
  0.18656715976331414        6.4112426035502961E-004  -1.4946240438290518E-006
  0.18784940828402422        6.4112426035502961E-004  -1.4859318672247061E-006
  0.18913165680473429        6.4112426035502961E-004  -1.4684557528152669E-006
  0.19041390532544436        6.4112426035502961E-004  -1.4416773195522323E-006
  0.19169615384615443        6.4112426035502961E-004  -1.4052484958174689E-006
  0.19297840236686450        6.4112426035502961E-004  -1.3590105783386049E-006
  0.19426065088757458        6.4112426035502961E-004  -1.3030122491907219E-006
  0.19554289940828465        6.4112426035502961E-004  -1.2375271679515612E-006
  0.19682514792899472        6.4112426035502961E-004  -1.1630686853834035E-006
  0.19810739644970479        6.4112426035502961E-004  -1.0803996342001874E-006
  0.19938964497041486        6.4112426035502961E-004  -9.9053532591961796E-007
  0.20067189349112494        6.4112426035502961E-004  -8.9473832069291856E-007
  0.20195414201183501        6.4112426035502961E-004  -7.9450417599726438E-007
  0.20323639053254508        6.4112426035502961E-004  -6.9153819816891842E-007
  0.20451863905325515        6.4112426035502961E-004  -5.8772415679338025E-007
  0.20580088757396522        6.4112426035502961E-004  -4.8508670568474310E-007
  0.20708313609467530        6.4112426035502961E-004  -3.8574919168918259E-007
  0.20836538461538537        6.4112426035502961E-004  -2.9188643911649027E-007
  0.20964763313609544        6.4112426035502961E-004  -2.0566879712979014E-007
  0.21092988165680551        6.4112426035502961E-004  -1.2920451914513213E-007
  0.21221213017751558        6.4112426035502961E-004  -6.4568692466035908E-008
  0.21349437869822566        6.4112426035502961E-004  -1.4405583217799065E-008
  0.21477662721893573        6.4112426035502961E-004   1.3537550414871810E-008
  0.21605887573964580        6.4112426035502961E-004   0.0000000000000000     
  0.21670000000000000        6.4112426035502961E-004   0.0000000000000000     
   0.0000000000000000        1.9233727810650889E-003   0.0000000000000000     
   6.4112426035502961E-004   1.9233727810650889E-003  -3.8430424995596692E-007
   1.9233727810650889E-003   1.9233727810650889E-003  -1.0735744020368447E-006
   3.2056213017751479E-003   1.9233727810650889E-003  -1.8173687257507900E-006
   4.4878698224852069E-003   1.9233727810650889E-003  -2.4737084090155118E-006
   5.7701183431952659E-003   1.9233727810650889E-003  -2.9824514654759421E-006
   7.0523668639053249E-003   1.9233727810650889E-003  -3.3336304378703102E-006
   8.3346153846153848E-003   1.9233727810650889E-003  -3.5426311871773038E-006
   9.6168639053254446E-003   1.9233727810650889E-003  -3.6349500148161439E-006
   1.0899112426035504E-002   1.9233727810650889E-003  -3.6380086592233045E-006
   1.2181360946745564E-002   1.9233727810650889E-003  -3.5764854907327361E-006
   1.3463609467455624E-002   1.9233727810650889E-003  -3.4705315638943862E-006
   1.4745857988165684E-002   1.9233727810650889E-003  -3.3363260425079618E-006
   1.6028106508875744E-002   1.9233727810650889E-003  -3.1863632946355887E-006
   1.7310355029585802E-002   1.9233727810650889E-003  -3.0299635970877774E-006
   1.8592603550295860E-002   1.9233727810650889E-003  -2.8738341794417255E-006
   1.9874852071005918E-002   1.9233727810650889E-003  -2.7225943573396400E-006
   2.1157100591715976E-002   1.9233727810650889E-003  -2.5792401280132989E-006
   2.2439349112426035E-002   1.9233727810650889E-003  -2.4455394540813112E-006
   2.3721597633136093E-002   1.9233727810650889E-003  -2.3223577278762976E-006
   2.5003846153846151E-002   1.9233727810650889E-003  -2.2099182742383456E-006
   2.6286094674556209E-002   1.9233727810650889E-003  -2.1080055300030840E-006
   2.7568343195266267E-002   1.9233727810650889E-003  -2.0161195926997957E-006
   2.8850591715976325E-002   1.9233727810650889E-003  -1.9335908198671934E-006
   3.0132840236686383E-002   1.9233727810650889E-003  -1.8596625121411196E-006
   3.1415088757396445E-002   1.9233727810650889E-003  -1.7935487309506298E-006
   3.2697337278106503E-002   1.9233727810650889E-003  -1.7344731967496617E-006
   3.3979585798816561E-002   1.9233727810650889E-003  -1.6816941224616916E-006
   3.5261834319526619E-002   1.9233727810650889E-003  -1.6345188390233451E-006
   3.6544082840236677E-002   1.9233727810650889E-003  -1.5923112040334658E-006
   3.7826331360946736E-002   1.9233727810650889E-003  -1.5544940622928516E-006
   3.9108579881656794E-002   1.9233727810650889E-003  -1.5205484431211028E-006
   4.0390828402366852E-002   1.9233727810650889E-003  -1.4900107192059399E-006
   4.1673076923076910E-002   1.9233727810650889E-003  -1.4624685975878594E-006
   4.2955325443786968E-002   1.9233727810650889E-003  -1.4375565459548397E-006
   4.4237573964497026E-002   1.9233727810650889E-003  -1.4149510596419735E-006