 title=sumMdot
 variables=x,y,sumMdot
 zone i=         121 ,j=         121
 
   0.0000000000000000        0.0000000000000000        0.0000000000000000     
   9.1050420168067229E-004   0.0000000000000000        0.0000000000000000     
   2.7315126050420167E-003   0.0000000000000000        0.0000000000000000     
   4.5525210084033617E-003   0.0000000000000000        0.0000000000000000     
   6.3735294117647067E-003   0.0000000000000000        0.0000000000000000     
   8.1945378151260517E-003   0.0000000000000000        0.0000000000000000     
   1.0015546218487397E-002   0.0000000000000000        0.0000000000000000     
   1.1836554621848742E-002   0.0000000000000000        0.0000000000000000     
   1.3657563025210087E-002   0.0000000000000000        0.0000000000000000     
   1.5478571428571432E-002   0.0000000000000000        0.0000000000000000     
   1.7299579831932775E-002   0.0000000000000000        0.0000000000000000     
   1.9120588235294118E-002   0.0000000000000000        0.0000000000000000     
   2.0941596638655462E-002   0.0000000000000000        0.0000000000000000     
   2.2762605042016805E-002   0.0000000000000000        0.0000000000000000     
   2.4583613445378148E-002   0.0000000000000000        0.0000000000000000     
   2.6404621848739492E-002   0.0000000000000000        0.0000000000000000     
   2.8225630252100835E-002   0.0000000000000000        0.0000000000000000     
   3.0046638655462178E-002   0.0000000000000000        0.0000000000000000     
   3.1867647058823521E-002   0.0000000000000000        0.0000000000000000     
   3.3688655462184865E-002   0.0000000000000000        0.0000000000000000     
   3.5509663865546208E-002   0.0000000000000000        0.0000000000000000     
   3.7330672268907551E-002   0.0000000000000000        0.0000000000000000     
   3.9151680672268895E-002   0.0000000000000000        0.0000000000000000     
   4.0972689075630238E-002   0.0000000000000000        0.0000000000000000     
   4.2793697478991581E-002   0.0000000000000000        0.0000000000000000     
   4.4614705882352924E-002   0.0000000000000000        0.0000000000000000     
   4.6435714285714268E-002   0.0000000000000000        0.0000000000000000     
   4.8256722689075611E-002   0.0000000000000000        0.0000000000000000     
   5.0077731092436954E-002   0.0000000000000000        0.0000000000000000     
   5.1898739495798298E-002   0.0000000000000000        0.0000000000000000     
   5.3719747899159641E-002   0.0000000000000000        0.0000000000000000     
   5.5540756302520984E-002   0.0000000000000000        0.0000000000000000     
   5.7361764705882327E-002   0.0000000000000000        0.0000000000000000     
   5.9182773109243671E-002   0.0000000000000000        0.0000000000000000     
   6.1003781512605014E-002   0.0000000000000000        0.0000000000000000     
   6.2824789915966364E-002   0.0000000000000000        0.0000000000000000     
   6.4645798319327707E-002   0.0000000000000000        0.0000000000000000     
   6.6466806722689051E-002   0.0000000000000000        0.0000000000000000     
   6.8287815126050394E-002   0.0000000000000000        0.0000000000000000     
   7.0108823529411737E-002   0.0000000000000000        0.0000000000000000     
   7.1929831932773081E-002   0.0000000000000000        0.0000000000000000     
   7.3750840336134424E-002   0.0000000000000000        0.0000000000000000     
   7.5571848739495767E-002   0.0000000000000000        0.0000000000000000     
   7.7392857142857110E-002   0.0000000000000000        0.0000000000000000     
   7.9213865546218454E-002   0.0000000000000000        0.0000000000000000     
   8.1034873949579797E-002   0.0000000000000000        0.0000000000000000     
   8.2855882352941140E-002   0.0000000000000000        0.0000000000000000     
   8.4676890756302484E-002   0.0000000000000000        0.0000000000000000     
   8.6497899159663827E-002   0.0000000000000000        0.0000000000000000     
   8.8318907563025170E-002   0.0000000000000000        0.0000000000000000     
   9.0139915966386513E-002   0.0000000000000000        0.0000000000000000     
   9.1960924369747857E-002   0.0000000000000000        0.0000000000000000     
   9.3781932773109200E-002   0.0000000000000000        0.0000000000000000     
   9.5602941176470543E-002   0.0000000000000000        0.0000000000000000     
   9.7423949579831887E-002   0.0000000000000000        0.0000000000000000     
   9.9244957983193230E-002   0.0000000000000000        0.0000000000000000     
  0.10106596638655457        0.0000000000000000        0.0000000000000000     
  0.10288697478991592        0.0000000000000000        0.0000000000000000     
  0.10470798319327726        0.0000000000000000        0.0000000000000000     
  0.10652899159663860        0.0000000000000000        0.0000000000000000     
  0.10834999999999995        0.0000000000000000        0.0000000000000000     
  0.11017100840336129        0.0000000000000000        0.0000000000000000     
  0.11199201680672263        0.0000000000000000        0.0000000000000000     
  0.11381302521008398        0.0000000000000000        0.0000000000000000     
  0.11563403361344532        0.0000000000000000        0.0000000000000000     
  0.11745504201680666        0.0000000000000000        0.0000000000000000     
  0.11927605042016801        0.0000000000000000        0.0000000000000000     
  0.12109705882352935        0.0000000000000000        0.0000000000000000     
  0.12291806722689069        0.0000000000000000        0.0000000000000000     
  0.12473907563025204        0.0000000000000000        0.0000000000000000     
  0.12656008403361338        0.0000000000000000        0.0000000000000000     
  0.12838109243697474        0.0000000000000000        0.0000000000000000     
  0.13020210084033609        0.0000000000000000        0.0000000000000000     
  0.13202310924369745        0.0000000000000000        0.0000000000000000     
  0.13384411764705881        0.0000000000000000        0.0000000000000000     
  0.13566512605042017        0.0000000000000000        0.0000000000000000     
  0.13748613445378152        0.0000000000000000        0.0000000000000000     
  0.13930714285714288        0.0000000000000000        0.0000000000000000     
  0.14112815126050424        0.0000000000000000        0.0000000000000000     
  0.14294915966386559        0.0000000000000000        0.0000000000000000     
  0.14477016806722695        0.0000000000000000        0.0000000000000000     
  0.14659117647058831        0.0000000000000000        0.0000000000000000     
  0.14841218487394967        0.0000000000000000        0.0000000000000000     
  0.15023319327731102        0.0000000000000000        0.0000000000000000     
  0.15205420168067238        0.0000000000000000        0.0000000000000000     
  0.15387521008403374        0.0000000000000000        0.0000000000000000     
  0.15569621848739509        0.0000000000000000        0.0000000000000000     
  0.15751722689075645        0.0000000000000000        0.0000000000000000     
  0.15933823529411781        0.0000000000000000        0.0000000000000000     
  0.16115924369747917        0.0000000000000000        0.0000000000000000     
  0.16298025210084052        0.0000000000000000        0.0000000000000000     
  0.16480126050420188        0.0000000000000000        0.0000000000000000     
  0.16662226890756324        0.0000000000000000        0.0000000000000000     
  0.16844327731092459        0.0000000000000000        0.0000000000000000     
  0.17026428571428595        0.0000000000000000        0.0000000000000000     
  0.17208529411764731        0.0000000000000000        0.0000000000000000     
  0.17390630252100867        0.0000000000000000        0.0000000000000000     
  0.17572731092437002        0.0000000000000000        0.0000000000000000     
  0.17754831932773138        0.0000000000000000        0.0000000000000000     
  0.17936932773109274        0.0000000000000000        0.0000000000000000     
  0.18119033613445409        0.0000000000000000        0.0000000000000000     
  0.18301134453781545        0.0000000000000000        0.0000000000000000     
  0.18483235294117681        0.0000000000000000        0.0000000000000000     
  0.18665336134453817        0.0000000000000000        0.0000000000000000     
  0.18847436974789952        0.0000000000000000        0.0000000000000000     
  0.19029537815126088        0.0000000000000000        0.0000000000000000     
  0.19211638655462224        0.0000000000000000        0.0000000000000000     
  0.19393739495798359        0.0000000000000000        0.0000000000000000     
  0.19575840336134495        0.0000000000000000        0.0000000000000000     
  0.19757941176470631        0.0000000000000000        0.0000000000000000     
  0.19940042016806767        0.0000000000000000        0.0000000000000000     
  0.20122142857142902        0.0000000000000000        0.0000000000000000     
  0.20304243697479038        0.0000000000000000        0.0000000000000000     
  0.20486344537815174        0.0000000000000000        0.0000000000000000     
  0.20668445378151309        0.0000000000000000        0.0000000000000000     
  0.20850546218487445        0.0000000000000000        0.0000000000000000     
  0.21032647058823581        0.0000000000000000        0.0000000000000000     
  0.21214747899159717        0.0000000000000000        0.0000000000000000     
  0.21396848739495852        0.0000000000000000        0.0000000000000000     
  0.21578949579831988        0.0000000000000000        0.0000000000000000     
  0.21670000000000000        0.0000000000000000        0.0000000000000000     
   5.5752302809922577E-020   9.1050420168067229E-004   0.0000000000000000     
   9.1050420168067240E-004   9.1050420168067219E-004   1.3379594791974999E-016
   2.7315126050420167E-003   9.1050420168067240E-004   1.3770871074047283E-016
   4.5525210084033608E-003   9.1050420168067229E-004   1.3822593023388998E-016
   6.3735294117647067E-003   9.1050420168067240E-004   1.3914776677829868E-016
   8.1945378151260517E-003   9.1050420168067229E-004   1.3984791891854316E-016
   1.0015546218487397E-002   9.1050420168067229E-004   1.4046322631617747E-016
   1.1836554621848742E-002   9.1050420168067229E-004   1.4138810274933730E-016
   1.3657563025210087E-002   9.1050420168067229E-004   1.4187010420099440E-016
   1.5478571428571430E-002   9.1050420168067229E-004   1.4255318333339579E-016
   1.7299579831932779E-002   9.1050420168067229E-004   1.4253963080623972E-016
   1.9120588235294118E-002   9.1050420168067229E-004   1.4295308876361823E-016
   2.0941596638655462E-002   9.1050420168067229E-004   1.4333708585630004E-016
   2.2762605042016801E-002   9.1050420168067229E-004   1.4381396540560421E-016
   2.4583613445378148E-002   9.1050420168067240E-004   1.4354887056289322E-016
   2.6404621848739492E-002   9.1050420168067229E-004   1.4376070820904560E-016
   2.8225630252100835E-002   9.1050420168067229E-004   1.4404646271473572E-016
   3.0046638655462178E-002   9.1050420168067229E-004   1.4414944339227612E-016
   3.1867647058823521E-002   9.1050420168067229E-004   1.4430801060698009E-016
   3.3688655462184865E-002   9.1050420168067229E-004   1.4448551694898906E-016
   3.5509663865546201E-002   9.1050420168067229E-004   1.4440601496595537E-016
   3.7330672268907551E-002   9.1050420168067229E-004   1.4388473236136935E-016
   3.9151680672268895E-002   9.1050420168067229E-004   1.4379151241505707E-016
   4.0972689075630238E-002   9.1050420168067229E-004   1.4372821324586207E-016
   4.2793697478991581E-002   9.1050420168067229E-004   1.4398523811451699E-016
   4.4614705882352924E-002   9.1050420168067240E-004   1.4384910403802547E-016
   4.6435714285714268E-002   9.1050420168067219E-004   1.4365168580431111E-016
   4.8256722689075611E-002   9.1050420168067219E-004   1.4383500226294266E-016
   5.0077731092436954E-002   9.1050420168067229E-004   1.4308736499245396E-016
   5.1898739495798298E-002   9.1050420168067229E-004   1.4328249524459399E-016
   5.3719747899159634E-002   9.1050420168067240E-004   1.4300500592758450E-016
   5.5540756302520991E-002   9.1050420168067219E-004   1.4294580626550531E-016
   5.7361764705882327E-002   9.1050420168067219E-004   1.4288841151152270E-016
   5.9182773109243671E-002   9.1050420168067229E-004   1.4279135344716818E-016
   6.1003781512605014E-002   9.1050420168067229E-004   1.4273040677963528E-016
   6.2824789915966378E-002   9.1050420168067229E-004   1.4236078443163841E-016
   6.4645798319327707E-002   9.1050420168067229E-004   1.4236440417399894E-016
   6.6466806722689065E-002   9.1050420168067229E-004   1.4241773416245146E-016
   6.8287815126050394E-002   9.1050420168067219E-004   1.4192308842795087E-016
   7.0108823529411737E-002   9.1050420168067229E-004   1.4211203798655391E-016
   7.1929831932773081E-002   9.1050420168067229E-004   1.4180689436730555E-016
   7.3750840336134424E-002   9.1050420168067229E-004   1.4197882054890224E-016
   7.5571848739495767E-002   9.1050420168067229E-004   1.4172417630605024E-016
   7.7392857142857110E-002   9.1050420168067229E-004   1.4133453453286837E-016
   7.9213865546218468E-002   9.1050420168067229E-004   1.4156997825934178E-016
   8.1034873949579797E-002   9.1050420168067229E-004   1.4123182847929133E-016
   8.2855882352941140E-002   9.1050420168067229E-004   1.4112076955588874E-016
   8.4676890756302484E-002   9.1050420168067229E-004   1.4118394464799186E-016
   8.6497899159663827E-002   9.1050420168067229E-004   1.4120677648725955E-016
   8.8318907563025170E-002   9.1050420168067219E-004   1.4119711005462126E-016
   9.0139915966386500E-002   9.1050420168067219E-004   1.4070362071861702E-016
   9.1960924369747871E-002   9.1050420168067219E-004   1.4106205793037095E-016
   9.3781932773109200E-002   9.1050420168067229E-004   1.4103735169983521E-016
   9.5602941176470543E-002   9.1050420168067219E-004   1.4088311560281858E-016
   9.7423949579831901E-002   9.1050420168067219E-004   1.4064378578182738E-016
   9.9244957983193244E-002   9.1050420168067229E-004   1.4055291833717721E-016
  0.10106596638655457        9.1050420168067229E-004   1.4047686735165908E-016
  0.10288697478991592        9.1050420168067229E-004   1.4072643270555001E-016
  0.10470798319327726        9.1050420168067240E-004   1.4068022226062973E-016
  0.10652899159663862        9.1050420168067219E-004   1.4090646112124666E-016
  0.10834999999999995        9.1050420168067240E-004   1.4050321884443319E-016
  0.11017100840336130        9.1050420168067229E-004   1.4053221566080623E-016
  0.11199201680672263        9.1050420168067229E-004   1.4053241563171932E-016
  0.11381302521008398        9.1050420168067240E-004   1.4039834397498883E-016
  0.11563403361344532        9.1050420168067229E-004   1.3998726204222109E-016
  0.11745504201680666        9.1050420168067229E-004   1.4016657122437513E-016
  0.11927605042016801        9.1050420168067229E-004   1.4051376705160446E-016
  0.12109705882352935        9.1050420168067229E-004   1.4014947753701672E-016
  0.12291806722689069        9.1050420168067229E-004   1.4059517403158887E-016
  0.12473907563025204        9.1050420168067229E-004   1.4069087882846125E-016
  0.12656008403361341        9.1050420168067229E-004   1.4037776780555278E-016
  0.12838109243697474        9.1050420168067229E-004   1.4070980472087647E-016
  0.13020210084033609        9.1050420168067229E-004   1.4052415230419507E-016
  0.13202310924369745        9.1050420168067229E-004   1.4042853353410639E-016
  0.13384411764705884        9.1050420168067229E-004   1.4053652361743641E-016
  0.13566512605042017        9.1050420168067229E-004   1.4050749950410315E-016
  0.13748613445378149        9.1050420168067219E-004   1.4073230734226036E-016
  0.13930714285714288        9.1050420168067229E-004   1.4060737659998525E-016
  0.14112815126050424        9.1050420168067219E-004   1.4104600731776497E-016
  0.14294915966386559        9.1050420168067229E-004   1.4094517069237231E-016
  0.14477016806722695        9.1050420168067229E-004   1.4051367358019524E-016
  0.14659117647058831        9.1050420168067229E-004   1.4068194196912323E-016
  0.14841218487394967        9.1050420168067219E-004   1.4081132625181632E-016
  0.15023319327731102        9.1050420168067229E-004   1.4070010023792999E-016
  0.15205420168067238        9.1050420168067229E-004   1.4023063222691430E-016
  0.15387521008403374        9.1050420168067229E-004   1.4006434907145644E-016
  0.15569621848739509        9.1050420168067219E-004   1.3959113558662710E-016
  0.15751722689075642        9.1050420168067240E-004   1.3933734333980603E-016
  0.15933823529411781        9.1050420168067229E-004   1.3916499860481938E-016
  0.16115924369747919        9.1050420168067240E-004   1.3837230811508737E-016
  0.16298025210084052        9.1050420168067229E-004   1.3704291637415135E-016
  0.16480126050420188        9.1050420168067219E-004   1.3614228212320361E-016
  0.16662226890756321        9.1050420168067229E-004   1.3485675080706760E-016
  0.16844327731092459        9.1050420168067229E-004   1.3389129206587531E-016
  0.17026428571428595        9.1050420168067229E-004   1.3202133448591343E-016
  0.17208529411764731        9.1050420168067229E-004   1.3027043797459999E-016
  0.17390630252100869        9.1050420168067229E-004   1.2850069498021013E-016
  0.17572731092437002        9.1050420168067219E-004   1.2617754830368760E-016
  0.17754831932773135        9.1050420168067229E-004   1.2334546717476325E-016
  0.17936932773109274        9.1050420168067219E-004   1.2112964221963580E-016
  0.18119033613445409        9.1050420168067219E-004   1.1774840580820484E-016
  0.18301134453781545        9.1050420168067229E-004   1.1525925390891027E-016
  0.18483235294117681        9.1050420168067229E-004   1.1166646440145765E-016
  0.18665336134453817        9.1050420168067240E-004   1.0800534646668570E-016
  0.18847436974789952        9.1050420168067229E-004   1.0535348152345705E-016
  0.19029537815126088        9.1050420168067229E-004   1.0204957657313244E-016
  0.19211638655462224        9.1050420168067240E-004   9.8477850392797873E-017
  0.19393739495798359        9.1050420168067229E-004   9.5904167252345283E-017
  0.19575840336134498        9.1050420168067240E-004   9.3396817379574545E-017
  0.19757941176470631        9.1050420168067229E-004   9.0863977109047374E-017
  0.19940042016806767        9.1050420168067229E-004   8.9072396546486122E-017
  0.20122142857142905        9.1050420168067240E-004   8.7164560711914217E-017
  0.20304243697479038        9.1050420168067240E-004   8.6674287454131587E-017
  0.20486344537815174        9.1050420168067229E-004   8.5756580195340756E-017
  0.20668445378151312        9.1050420168067229E-004   8.4612503381396214E-017
  0.20850546218487445        9.1050420168067229E-004   8.5327928584470877E-017
  0.21032647058823581        9.1050420168067229E-004   8.5675317971963547E-017
  0.21214747899159717        9.1050420168067240E-004   8.5208285180671207E-017
  0.21396848739495852        9.1050420168067229E-004   8.4653213902423623E-017
  0.21578949579831988        9.1050420168067240E-004   4.1852523272378070E-017
  0.21670000000000000        9.1050420168067240E-004   0.0000000000000000     
   1.6725690842976769E-019   2.7315126050420167E-003   0.0000000000000000     
   9.1050420168067153E-004   2.7315126050420167E-003   1.3507602646128805E-016
   2.7315126050420162E-003   2.7315126050420167E-003   1.3820041336635395E-016
   4.5525210084033617E-003   2.7315126050420162E-003   1.3830788067153684E-016
   6.3735294117647067E-003   2.7315126050420167E-003   1.3821211300893790E-016
   8.1945378151260517E-003   2.7315126050420167E-003   1.3874587611460612E-016
   1.0015546218487397E-002   2.7315126050420167E-003   1.3940847673658253E-016
   1.1836554621848742E-002   2.7315126050420167E-003   1.3977601376225515E-016
   1.3657563025210087E-002   2.7315126050420167E-003   1.4034449198387100E-016
   1.5478571428571430E-002   2.7315126050420167E-003   1.4050812816136869E-016
   1.7299579831932772E-002   2.7315126050420167E-003   1.4075858521595994E-016
   1.9120588235294118E-002   2.7315126050420167E-003   1.4112704454801556E-016
   2.0941596638655462E-002   2.7315126050420171E-003   1.4182883781459535E-016
   2.2762605042016805E-002   2.7315126050420167E-003   1.4138891007761515E-016
   2.4583613445378152E-002   2.7315126050420167E-003   1.4204131073545817E-016
   2.6404621848739495E-002   2.7315126050420167E-003   1.4228104752931074E-016
   2.8225630252100835E-002   2.7315126050420167E-003   1.4257588116940424E-016
   3.0046638655462178E-002   2.7315126050420167E-003   1.4258110895087558E-016
   3.1867647058823521E-002   2.7315126050420167E-003   1.4265769925815309E-016
   3.3688655462184865E-002   2.7315126050420167E-003   1.4300757680492832E-016
   3.5509663865546208E-002   2.7315126050420167E-003   1.4239383526019357E-016
   3.7330672268907551E-002   2.7315126050420167E-003   1.4237619315208904E-016
   3.9151680672268888E-002   2.7315126050420167E-003   1.4278311969135083E-016
   4.0972689075630238E-002   2.7315126050420162E-003   1.4276028619772192E-016
   4.2793697478991574E-002   2.7315126050420167E-003   1.4241319790397222E-016
   4.4614705882352917E-002   2.7315126050420167E-003   1.4241477285585852E-016
   4.6435714285714261E-002   2.7315126050420167E-003   1.4270225451466765E-016
   4.8256722689075611E-002   2.7315126050420167E-003   1.4231692069811594E-016
   5.0077731092436954E-002   2.7315126050420167E-003   1.4257613097794924E-016
   5.1898739495798304E-002   2.7315126050420167E-003   1.4247785364937181E-016
   5.3719747899159641E-002   2.7315126050420167E-003   1.4208334805418812E-016
   5.5540756302520984E-002   2.7315126050420167E-003   1.4179342455821073E-016
   5.7361764705882334E-002   2.7315126050420167E-003   1.4206650831127777E-016
   5.9182773109243671E-002   2.7315126050420167E-003   1.4143440997438924E-016
   6.1003781512605014E-002   2.7315126050420167E-003   1.4198441890728800E-016
   6.2824789915966364E-002   2.7315126050420167E-003   1.4144329554852929E-016
   6.4645798319327707E-002   2.7315126050420167E-003   1.4155532227324857E-016
   6.6466806722689051E-002   2.7315126050420167E-003   1.4152537833507415E-016
   6.8287815126050394E-002   2.7315126050420167E-003   1.4161901352605393E-016
   7.0108823529411737E-002   2.7315126050420167E-003   1.4096807366917267E-016
   7.1929831932773095E-002   2.7315126050420162E-003   1.4130730374710312E-016
   7.3750840336134424E-002   2.7315126050420167E-003   1.4101104901071725E-016
   7.5571848739495767E-002   2.7315126050420167E-003   1.4060656265426250E-016
   7.7392857142857110E-002   2.7315126050420162E-003   1.4107581890704138E-016
   7.9213865546218454E-002   2.7315126050420167E-003   1.4102576289945335E-016
   8.1034873949579797E-002   2.7315126050420167E-003   1.4069094500291026E-016
   8.2855882352941140E-002   2.7315126050420167E-003   1.4090458755715923E-016
   8.4676890756302498E-002   2.7315126050420162E-003   1.4065285499006342E-016
   8.6497899159663827E-002   2.7315126050420167E-003   1.4060782824059970E-016
   8.8318907563025170E-002   2.7315126050420167E-003   1.4067300841850766E-016
   9.0139915966386513E-002   2.7315126050420167E-003   1.4077862283911843E-016
   9.1960924369747857E-002   2.7315126050420167E-003   1.4081514120880142E-016
   9.3781932773109200E-002   2.7315126050420167E-003   1.4038209230579521E-016
   9.5602941176470543E-002   2.7315126050420167E-003   1.4079207279587854E-016
   9.7423949579831887E-002   2.7315126050420167E-003   1.4069619594543874E-016
   9.9244957983193230E-002   2.7315126050420167E-003   1.4026982404433706E-016
  0.10106596638655457        2.7315126050420167E-003   1.4070604270345058E-016
  0.10288697478991592        2.7315126050420167E-003   1.4066289199961613E-016
  0.10470798319327726        2.7315126050420167E-003   1.4055325830840897E-016
  0.10652899159663860        2.7315126050420167E-003   1.4056864552216368E-016
  0.10834999999999995        2.7315126050420167E-003   1.4072031239619773E-016
  0.11017100840336129        2.7315126050420167E-003   1.4065862209329414E-016
  0.11199201680672263        2.7315126050420167E-003   1.4049203929165938E-016
  0.11381302521008398        2.7315126050420167E-003   1.4042324035366787E-016
  0.11563403361344532        2.7315126050420167E-003   1.4032337943950650E-016
  0.11745504201680665        2.7315126050420167E-003   1.4031821162862958E-016
  0.11927605042016799        2.7315126050420167E-003   1.4019009954971859E-016
  0.12109705882352935        2.7315126050420167E-003   1.4053374925366191E-016
  0.12291806722689069        2.7315126050420167E-003   1.4099700513827733E-016
  0.12473907563025204        2.7315126050420167E-003   1.4050036920722294E-016
  0.12656008403361338        2.7315126050420167E-003   1.4059853238487583E-016
  0.12838109243697471        2.7315126050420167E-003   1.4096141982832530E-016
  0.13020210084033609        2.7315126050420167E-003   1.4075209019379018E-016
  0.13202310924369745        2.7315126050420167E-003   1.4085199706817433E-016
  0.13384411764705881        2.7315126050420167E-003   1.4092000454941599E-016
  0.13566512605042014        2.7315126050420167E-003   1.4110117695589981E-016
  0.13748613445378155        2.7315126050420167E-003   1.4085114341778218E-016
  0.13930714285714288        2.7315126050420167E-003   1.4149647002702665E-016
  0.14112815126050424        2.7315126050420167E-003   1.4127118573283660E-016
  0.14294915966386559        2.7315126050420162E-003   1.4109133681533288E-016
  0.14477016806722698        2.7315126050420167E-003   1.4094102817186464E-016
  0.14659117647058831        2.7315126050420167E-003   1.4144805680013514E-016
  0.14841218487394967        2.7315126050420167E-003   1.4107070362213335E-016
  0.15023319327731102        2.7315126050420167E-003   1.4091765535647634E-016
  0.15205420168067238        2.7315126050420167E-003   1.4058334204010691E-016
  0.15387521008403374        2.7315126050420167E-003   1.4032324998574064E-016
  0.15569621848739509        2.7315126050420167E-003   1.4024890960972927E-016
  0.15751722689075645        2.7315126050420167E-003   1.3985440401454558E-016
  0.15933823529411781        2.7315126050420171E-003   1.3901735017420112E-016
  0.16115924369747917        2.7315126050420167E-003   1.3825329998599814E-016
  0.16298025210084052        2.7315126050420162E-003   1.3709887348822933E-016
  0.16480126050420188        2.7315126050420167E-003   1.3657585711307940E-016
  0.16662226890756324        2.7315126050420167E-003   1.3524003321570017E-016
  0.16844327731092459        2.7315126050420167E-003   1.3378191893656109E-016
  0.17026428571428595        2.7315126050420167E-003   1.3221567560774909E-016
  0.17208529411764734        2.7315126050420167E-003   1.3061729796650062E-016
  0.17390630252100869        2.7315126050420167E-003   1.2882124401118668E-016
  0.17572731092437002        2.7315126050420167E-003   1.2615134322188192E-016
  0.17754831932773138        2.7315126050420167E-003   1.2416751265007355E-016
  0.17936932773109276        2.7315126050420167E-003   1.2125217082941206E-016
  0.18119033613445409        2.7315126050420167E-003   1.1877336861394175E-016
  0.18301134453781545        2.7315126050420167E-003   1.1557892943715996E-016
  0.18483235294117678        2.7315126050420167E-003   1.1205457092742263E-016
  0.18665336134453817        2.7315126050420167E-003   1.0927448637180336E-016
  0.18847436974789952        2.7315126050420167E-003   1.0645462435488764E-016
  0.19029537815126088        2.7315126050420167E-003   1.0281180034654291E-016
  0.19211638655462224        2.7315126050420167E-003   9.9739505967733153E-017
  0.19393739495798359        2.7315126050420167E-003   9.7344282081355204E-017
  0.19575840336134498        2.7315126050420167E-003   9.4454655651576760E-017
  0.19757941176470634        2.7315126050420167E-003   9.2360684326845723E-017
  0.19940042016806767        2.7315126050420167E-003   9.0552798380049825E-017
  0.20122142857142905        2.7315126050420167E-003   8.9328941650385768E-017
  0.20304243697479038        2.7315126050420167E-003   8.8103761431741626E-017
  0.20486344537815174        2.7315126050420167E-003   8.7546149054652279E-017
  0.20668445378151312        2.7315126050420167E-003   8.7109874147257111E-017
  0.20850546218487448        2.7315126050420167E-003   8.7608988311426708E-017
  0.21032647058823584        2.7315126050420167E-003   8.7148943541949216E-017
  0.21214747899159717        2.7315126050420167E-003   8.7603535536828758E-017
  0.21396848739495852        2.7315126050420167E-003   8.7252916836224681E-017
  0.21578949579831988        2.7315126050420167E-003   4.2182293712823360E-017
  0.21670000000000000        2.7315126050420167E-003   0.0000000000000000     
   2.7876151404961289E-019   4.5525210084033617E-003   0.0000000000000000     
   9.1050420168067121E-004   4.5525210084033617E-003   1.3200309680776786E-016
   2.7315126050420154E-003   4.5525210084033617E-003   1.3476124784226468E-016
   4.5525210084033626E-003   4.5525210084033617E-003   1.3451222015577191E-016
   6.3735294117647058E-003   4.5525210084033617E-003   1.3456791257205388E-016
   8.1945378151260535E-003   4.5525210084033617E-003   1.3459904103286548E-016
   1.0015546218487397E-002   4.5525210084033617E-003   1.3517084121182133E-016
   1.1836554621848742E-002   4.5525210084033617E-003   1.3520816360105973E-016
   1.3657563025210085E-002   4.5525210084033617E-003   1.3567117298585261E-016
   1.5478571428571430E-002   4.5525210084033617E-003   1.3573454163821907E-016
   1.7299579831932775E-002   4.5525210084033617E-003   1.3609998341540010E-016
   1.9120588235294118E-002   4.5525210084033617E-003   1.3683287867301188E-016
   2.0941596638655462E-002   4.5525210084033617E-003   1.3632434126730408E-016
   2.2762605042016805E-002   4.5525210084033617E-003   1.3723109003733981E-016
   2.4583613445378148E-002   4.5525210084033617E-003   1.3738260305577992E-016