 title=sumMdot
 variables=x,y,sumMdot
 zone i=         161 ,j=         161
 
   0.0000000000000000        0.0000000000000000        0.0000000000000000     
   6.8144654088050319E-004   0.0000000000000000        0.0000000000000000     
   2.0443396226415096E-003   0.0000000000000000        0.0000000000000000     
   3.4072327044025160E-003   0.0000000000000000        0.0000000000000000     
   4.7701257861635224E-003   0.0000000000000000        0.0000000000000000     
   6.1330188679245288E-003   0.0000000000000000        0.0000000000000000     
   7.4959119496855351E-003   0.0000000000000000        0.0000000000000000     
   8.8588050314465407E-003   0.0000000000000000        0.0000000000000000     
   1.0221698113207547E-002   0.0000000000000000        0.0000000000000000     
   1.1584591194968553E-002   0.0000000000000000        0.0000000000000000     
   1.2947484276729560E-002   0.0000000000000000        0.0000000000000000     
   1.4310377358490566E-002   0.0000000000000000        0.0000000000000000     
   1.5673270440251574E-002   0.0000000000000000        0.0000000000000000     
   1.7036163522012579E-002   0.0000000000000000        0.0000000000000000     
   1.8399056603773584E-002   0.0000000000000000        0.0000000000000000     
   1.9761949685534588E-002   0.0000000000000000        0.0000000000000000     
   2.1124842767295593E-002   0.0000000000000000        0.0000000000000000     
   2.2487735849056598E-002   0.0000000000000000        0.0000000000000000     
   2.3850628930817602E-002   0.0000000000000000        0.0000000000000000     
   2.5213522012578607E-002   0.0000000000000000        0.0000000000000000     
   2.6576415094339612E-002   0.0000000000000000        0.0000000000000000     
   2.7939308176100616E-002   0.0000000000000000        0.0000000000000000     
   2.9302201257861621E-002   0.0000000000000000        0.0000000000000000     
   3.0665094339622626E-002   0.0000000000000000        0.0000000000000000     
   3.2027987421383630E-002   0.0000000000000000        0.0000000000000000     
   3.3390880503144635E-002   0.0000000000000000        0.0000000000000000     
   3.4753773584905640E-002   0.0000000000000000        0.0000000000000000     
   3.6116666666666644E-002   0.0000000000000000        0.0000000000000000     
   3.7479559748427649E-002   0.0000000000000000        0.0000000000000000     
   3.8842452830188653E-002   0.0000000000000000        0.0000000000000000     
   4.0205345911949658E-002   0.0000000000000000        0.0000000000000000     
   4.1568238993710663E-002   0.0000000000000000        0.0000000000000000     
   4.2931132075471667E-002   0.0000000000000000        0.0000000000000000     
   4.4294025157232672E-002   0.0000000000000000        0.0000000000000000     
   4.5656918238993677E-002   0.0000000000000000        0.0000000000000000     
   4.7019811320754681E-002   0.0000000000000000        0.0000000000000000     
   4.8382704402515686E-002   0.0000000000000000        0.0000000000000000     
   4.9745597484276691E-002   0.0000000000000000        0.0000000000000000     
   5.1108490566037695E-002   0.0000000000000000        0.0000000000000000     
   5.2471383647798700E-002   0.0000000000000000        0.0000000000000000     
   5.3834276729559705E-002   0.0000000000000000        0.0000000000000000     
   5.5197169811320709E-002   0.0000000000000000        0.0000000000000000     
   5.6560062893081714E-002   0.0000000000000000        0.0000000000000000     
   5.7922955974842719E-002   0.0000000000000000        0.0000000000000000     
   5.9285849056603723E-002   0.0000000000000000        0.0000000000000000     
   6.0648742138364728E-002   0.0000000000000000        0.0000000000000000     
   6.2011635220125733E-002   0.0000000000000000        0.0000000000000000     
   6.3374528301886737E-002   0.0000000000000000        0.0000000000000000     
   6.4737421383647742E-002   0.0000000000000000        0.0000000000000000     
   6.6100314465408747E-002   0.0000000000000000        0.0000000000000000     
   6.7463207547169751E-002   0.0000000000000000        0.0000000000000000     
   6.8826100628930756E-002   0.0000000000000000        0.0000000000000000     
   7.0188993710691761E-002   0.0000000000000000        0.0000000000000000     
   7.1551886792452765E-002   0.0000000000000000        0.0000000000000000     
   7.2914779874213770E-002   0.0000000000000000        0.0000000000000000     
   7.4277672955974774E-002   0.0000000000000000        0.0000000000000000     
   7.5640566037735779E-002   0.0000000000000000        0.0000000000000000     
   7.7003459119496784E-002   0.0000000000000000        0.0000000000000000     
   7.8366352201257788E-002   0.0000000000000000        0.0000000000000000     
   7.9729245283018793E-002   0.0000000000000000        0.0000000000000000     
   8.1092138364779798E-002   0.0000000000000000        0.0000000000000000     
   8.2455031446540802E-002   0.0000000000000000        0.0000000000000000     
   8.3817924528301807E-002   0.0000000000000000        0.0000000000000000     
   8.5180817610062812E-002   0.0000000000000000        0.0000000000000000     
   8.6543710691823816E-002   0.0000000000000000        0.0000000000000000     
   8.7906603773584821E-002   0.0000000000000000        0.0000000000000000     
   8.9269496855345826E-002   0.0000000000000000        0.0000000000000000     
   9.0632389937106830E-002   0.0000000000000000        0.0000000000000000     
   9.1995283018867835E-002   0.0000000000000000        0.0000000000000000     
   9.3358176100628840E-002   0.0000000000000000        0.0000000000000000     
   9.4721069182389844E-002   0.0000000000000000        0.0000000000000000     
   9.6083962264150849E-002   0.0000000000000000        0.0000000000000000     
   9.7446855345911854E-002   0.0000000000000000        0.0000000000000000     
   9.8809748427672858E-002   0.0000000000000000        0.0000000000000000     
  0.10017264150943386        0.0000000000000000        0.0000000000000000     
  0.10153553459119487        0.0000000000000000        0.0000000000000000     
  0.10289842767295587        0.0000000000000000        0.0000000000000000     
  0.10426132075471688        0.0000000000000000        0.0000000000000000     
  0.10562421383647788        0.0000000000000000        0.0000000000000000     
  0.10698710691823889        0.0000000000000000        0.0000000000000000     
  0.10834999999999989        0.0000000000000000        0.0000000000000000     
  0.10971289308176090        0.0000000000000000        0.0000000000000000     
  0.11107578616352190        0.0000000000000000        0.0000000000000000     
  0.11243867924528290        0.0000000000000000        0.0000000000000000     
  0.11380157232704391        0.0000000000000000        0.0000000000000000     
  0.11516446540880491        0.0000000000000000        0.0000000000000000     
  0.11652735849056592        0.0000000000000000        0.0000000000000000     
  0.11789025157232692        0.0000000000000000        0.0000000000000000     
  0.11925314465408793        0.0000000000000000        0.0000000000000000     
  0.12061603773584893        0.0000000000000000        0.0000000000000000     
  0.12197893081760994        0.0000000000000000        0.0000000000000000     
  0.12334182389937094        0.0000000000000000        0.0000000000000000     
  0.12470471698113195        0.0000000000000000        0.0000000000000000     
  0.12606761006289297        0.0000000000000000        0.0000000000000000     
  0.12743050314465398        0.0000000000000000        0.0000000000000000     
  0.12879339622641500        0.0000000000000000        0.0000000000000000     
  0.13015628930817602        0.0000000000000000        0.0000000000000000     
  0.13151918238993704        0.0000000000000000        0.0000000000000000     
  0.13288207547169806        0.0000000000000000        0.0000000000000000     
  0.13424496855345908        0.0000000000000000        0.0000000000000000     
  0.13560786163522009        0.0000000000000000        0.0000000000000000     
  0.13697075471698111        0.0000000000000000        0.0000000000000000     
  0.13833364779874213        0.0000000000000000        0.0000000000000000     
  0.13969654088050315        0.0000000000000000        0.0000000000000000     
  0.14105943396226417        0.0000000000000000        0.0000000000000000     
  0.14242232704402519        0.0000000000000000        0.0000000000000000     
  0.14378522012578621        0.0000000000000000        0.0000000000000000     
  0.14514811320754722        0.0000000000000000        0.0000000000000000     
  0.14651100628930824        0.0000000000000000        0.0000000000000000     
  0.14787389937106926        0.0000000000000000        0.0000000000000000     
  0.14923679245283028        0.0000000000000000        0.0000000000000000     
  0.15059968553459130        0.0000000000000000        0.0000000000000000     
  0.15196257861635232        0.0000000000000000        0.0000000000000000     
  0.15332547169811334        0.0000000000000000        0.0000000000000000     
  0.15468836477987435        0.0000000000000000        0.0000000000000000     
  0.15605125786163537        0.0000000000000000        0.0000000000000000     
  0.15741415094339639        0.0000000000000000        0.0000000000000000     
  0.15877704402515741        0.0000000000000000        0.0000000000000000     
  0.16013993710691843        0.0000000000000000        0.0000000000000000     
  0.16150283018867945        0.0000000000000000        0.0000000000000000     
  0.16286572327044047        0.0000000000000000        0.0000000000000000     
  0.16422861635220148        0.0000000000000000        0.0000000000000000     
  0.16559150943396250        0.0000000000000000        0.0000000000000000     
  0.16695440251572352        0.0000000000000000        0.0000000000000000     
  0.16831729559748454        0.0000000000000000        0.0000000000000000     
  0.16968018867924556        0.0000000000000000        0.0000000000000000     
  0.17104308176100658        0.0000000000000000        0.0000000000000000     
  0.17240597484276760        0.0000000000000000        0.0000000000000000     
  0.17376886792452861        0.0000000000000000        0.0000000000000000     
  0.17513176100628963        0.0000000000000000        0.0000000000000000     
  0.17649465408805065        0.0000000000000000        0.0000000000000000     
  0.17785754716981167        0.0000000000000000        0.0000000000000000     
  0.17922044025157269        0.0000000000000000        0.0000000000000000     
  0.18058333333333371        0.0000000000000000        0.0000000000000000     
  0.18194622641509473        0.0000000000000000        0.0000000000000000     
  0.18330911949685574        0.0000000000000000        0.0000000000000000     
  0.18467201257861676        0.0000000000000000        0.0000000000000000     
  0.18603490566037778        0.0000000000000000        0.0000000000000000     
  0.18739779874213880        0.0000000000000000        0.0000000000000000     
  0.18876069182389982        0.0000000000000000        0.0000000000000000     
  0.19012358490566084        0.0000000000000000        0.0000000000000000     
  0.19148647798742185        0.0000000000000000        0.0000000000000000     
  0.19284937106918287        0.0000000000000000        0.0000000000000000     
  0.19421226415094389        0.0000000000000000        0.0000000000000000     
  0.19557515723270491        0.0000000000000000        0.0000000000000000     
  0.19693805031446593        0.0000000000000000        0.0000000000000000     
  0.19830094339622695        0.0000000000000000        0.0000000000000000     
  0.19966383647798797        0.0000000000000000        0.0000000000000000     
  0.20102672955974898        0.0000000000000000        0.0000000000000000     
  0.20238962264151000        0.0000000000000000        0.0000000000000000     
  0.20375251572327102        0.0000000000000000        0.0000000000000000     
  0.20511540880503204        0.0000000000000000        0.0000000000000000     
  0.20647830188679306        0.0000000000000000        0.0000000000000000     
  0.20784119496855408        0.0000000000000000        0.0000000000000000     
  0.20920408805031510        0.0000000000000000        0.0000000000000000     
  0.21056698113207611        0.0000000000000000        0.0000000000000000     
  0.21192987421383713        0.0000000000000000        0.0000000000000000     
  0.21329276729559815        0.0000000000000000        0.0000000000000000     
  0.21465566037735917        0.0000000000000000        0.0000000000000000     
  0.21601855345912019        0.0000000000000000        0.0000000000000000     
  0.21670000000000000        0.0000000000000000        0.0000000000000000     
   4.1726566253967213E-020   6.8144654088050319E-004   0.0000000000000000     
   6.8144654088050309E-004   6.8144654088050319E-004  -3.4919960949677735E-011
   2.0443396226415092E-003   6.8144654088050319E-004  -3.7483125234159448E-011
   3.4072327044025155E-003   6.8144654088050319E-004  -3.8113491718219591E-011
   4.7701257861635224E-003   6.8144654088050319E-004  -3.8918699229971059E-011
   6.1330188679245288E-003   6.8144654088050319E-004  -3.9771900785508023E-011
   7.4959119496855351E-003   6.8144654088050319E-004  -4.0588389880406046E-011
   8.8588050314465407E-003   6.8144654088050330E-004  -4.1313916406610604E-011
   1.0221698113207547E-002   6.8144654088050330E-004  -4.1923210315351675E-011
   1.1584591194968553E-002   6.8144654088050319E-004  -4.2399845990381497E-011
   1.2947484276729562E-002   6.8144654088050319E-004  -4.2750895296727923E-011
   1.4310377358490566E-002   6.8144654088050319E-004  -4.2996332754836465E-011
   1.5673270440251574E-002   6.8144654088050319E-004  -4.3148543342972185E-011
   1.7036163522012579E-002   6.8144654088050319E-004  -4.3219153466457852E-011
   1.8399056603773584E-002   6.8144654088050319E-004  -4.3220098909042877E-011
   1.9761949685534588E-002   6.8144654088050319E-004  -4.3162381768047210E-011
   2.1124842767295593E-002   6.8144654088050319E-004  -4.3055777621068959E-011
   2.2487735849056598E-002   6.8144654088050319E-004  -4.2908822853881811E-011
   2.3850628930817602E-002   6.8144654088050319E-004  -4.2728887806487967E-011
   2.5213522012578607E-002   6.8144654088050319E-004  -4.2522314411379566E-011
   2.6576415094339612E-002   6.8144654088050319E-004  -4.2294569499183244E-011
   2.7939308176100616E-002   6.8144654088050319E-004  -4.2050389790563819E-011
   2.9302201257861621E-002   6.8144654088050319E-004  -4.1793907613436656E-011
   3.0665094339622626E-002   6.8144654088050319E-004  -4.1528754909610559E-011
   3.2027987421383623E-002   6.8144654088050319E-004  -4.1258148466763401E-011
   3.3390880503144635E-002   6.8144654088050319E-004  -4.0984956022153953E-011
   3.4753773584905646E-002   6.8144654088050319E-004  -4.0711755184973320E-011
   3.6116666666666651E-002   6.8144654088050319E-004  -4.0440867078028601E-011
   3.7479559748427649E-002   6.8144654088050319E-004  -4.0174401204958996E-011
   3.8842452830188653E-002   6.8144654088050319E-004  -3.9914288244580467E-011
   4.0205345911949658E-002   6.8144654088050309E-004  -3.9662299689071653E-011
   4.1568238993710663E-002   6.8144654088050319E-004  -3.9420076908137629E-011
   4.2931132075471674E-002   6.8144654088050309E-004  -3.9189135536983030E-011
   4.4294025157232679E-002   6.8144654088050319E-004  -3.8970884025051464E-011
   4.5656918238993677E-002   6.8144654088050319E-004  -3.8766629974609632E-011
   4.7019811320754688E-002   6.8144654088050319E-004  -3.8577587089233214E-011
   4.8382704402515693E-002   6.8144654088050319E-004  -3.8404883793006524E-011
   4.9745597484276698E-002   6.8144654088050319E-004  -3.8249566117221540E-011
   5.1108490566037695E-002   6.8144654088050319E-004  -3.8112593576662530E-011
   5.2471383647798707E-002   6.8144654088050319E-004  -3.7994850164274022E-011
   5.3834276729559712E-002   6.8144654088050319E-004  -3.7897142660184438E-011
   5.5197169811320709E-002   6.8144654088050319E-004  -3.7820205403322268E-011
   5.6560062893081714E-002   6.8144654088050319E-004  -3.7764701594858330E-011
   5.7922955974842719E-002   6.8144654088050319E-004  -3.7731222679323296E-011
   5.9285849056603723E-002   6.8144654088050319E-004  -3.7720290592144272E-011
   6.0648742138364735E-002   6.8144654088050319E-004  -3.7732357368319712E-011
   6.2011635220125740E-002   6.8144654088050319E-004  -3.7767803798671956E-011
   6.3374528301886737E-002   6.8144654088050319E-004  -3.7826943533457165E-011
   6.4737421383647742E-002   6.8144654088050319E-004  -3.7910027462709349E-011
   6.6100314465408747E-002   6.8144654088050319E-004  -3.8017238615939012E-011
   6.7463207547169751E-002   6.8144654088050319E-004  -3.8148695130796689E-011
   6.8826100628930756E-002   6.8144654088050319E-004  -3.8304454762423239E-011
   7.0188993710691761E-002   6.8144654088050319E-004  -3.8484513810097801E-011
   7.1551886792452765E-002   6.8144654088050319E-004  -3.8688813598254970E-011
   7.2914779874213770E-002   6.8144654088050319E-004  -3.8917241146260380E-011
   7.4277672955974774E-002   6.8144654088050319E-004  -3.9169631830886723E-011
   7.5640566037735779E-002   6.8144654088050330E-004  -3.9445775769238886E-011
   7.7003459119496784E-002   6.8144654088050319E-004  -3.9745422252284864E-011
   7.8366352201257775E-002   6.8144654088050319E-004  -4.0068282601019430E-011
   7.9729245283018793E-002   6.8144654088050319E-004  -4.0414038953528506E-011
   8.1092138364779798E-002   6.8144654088050319E-004  -4.0782350436440615E-011
   8.2455031446540802E-002   6.8144654088050319E-004  -4.1172854858651143E-011
   8.3817924528301807E-002   6.8144654088050309E-004  -4.1585180561527518E-011
   8.5180817610062812E-002   6.8144654088050319E-004  -4.2018949319081362E-011
   8.6543710691823816E-002   6.8144654088050330E-004  -4.2473781710193895E-011
   8.7906603773584807E-002   6.8144654088050319E-004  -4.2949305384289343E-011
   8.9269496855345826E-002   6.8144654088050319E-004  -4.3445157189063508E-011
   9.0632389937106830E-002   6.8144654088050319E-004  -4.3960989394677072E-011
   9.1995283018867835E-002   6.8144654088050319E-004  -4.4496478942771398E-011
   9.3358176100628840E-002   6.8144654088050319E-004  -4.5051329468925122E-011
   9.4721069182389844E-002   6.8144654088050319E-004  -4.5625282978173676E-011
   9.6083962264150863E-002   6.8144654088050319E-004  -4.6218114192437475E-011
   9.7446855345911840E-002   6.8144654088050319E-004  -4.6829638408932548E-011
   9.8809748427672858E-002   6.8144654088050319E-004  -4.7459711911343401E-011
  0.10017264150943386        6.8144654088050319E-004  -4.8108222900521312E-011
  0.10153553459119485        6.8144654088050319E-004  -4.8775085944977993E-011
  0.10289842767295586        6.8144654088050319E-004  -4.9460217638496649E-011
  0.10426132075471686        6.8144654088050319E-004  -5.0163500011947010E-011
  0.10562421383647788        6.8144654088050319E-004  -5.0884888788046194E-011
  0.10698710691823889        6.8144654088050319E-004  -5.1624519666883559E-011
  0.10834999999999989        6.8144654088050319E-004  -5.2381674771124910E-011
  0.10971289308176090        6.8144654088050319E-004  -5.3157308235941557E-011
  0.11107578616352191        6.8144654088050319E-004  -5.3952334679071257E-011
  0.11243867924528290        6.8144654088050319E-004  -5.4766115964700186E-011
  0.11380157232704391        6.8144654088050319E-004  -5.5598561239369975E-011
  0.11516446540880491        6.8144654088050319E-004  -5.6449550174171571E-011
  0.11652735849056592        6.8144654088050319E-004  -5.7318923446337709E-011
  0.11789025157232692        6.8144654088050319E-004  -5.8206476827788390E-011
  0.11925314465408793        6.8144654088050319E-004  -5.9111954403953439E-011
  0.12061603773584893        6.8144654088050319E-004  -6.0035038018449099E-011
  0.12197893081760994        6.8144654088050319E-004  -6.0975345166309806E-011
  0.12334182389937094        6.8144654088050319E-004  -6.1932419473724986E-011
  0.12470471698113195        6.8144654088050319E-004  -6.2905732556760211E-011
  0.12606761006289299        6.8144654088050319E-004  -6.3894692120622546E-011
  0.12743050314465398        6.8144654088050319E-004  -6.4898653397650195E-011
  0.12879339622641500        6.8144654088050319E-004  -6.5916938049277883E-011
  0.13015628930817602        6.8144654088050319E-004  -6.6948858840272050E-011
  0.13151918238993704        6.8144654088050319E-004  -6.7993735293560693E-011
  0.13288207547169806        6.8144654088050319E-004  -6.9050920291031761E-011
  0.13424496855345908        6.8144654088050319E-004  -7.0119835379836737E-011
  0.13560786163522009        6.8144654088050319E-004  -7.1200007294206360E-011
  0.13697075471698109        6.8144654088050319E-004  -7.2291118216483198E-011
  0.13833364779874213        6.8144654088050319E-004  -7.3393045946243036E-011
  0.13969654088050315        6.8144654088050319E-004  -7.4505912935392847E-011
  0.14105943396226414        6.8144654088050319E-004  -7.5630134116683559E-011
  0.14242232704402519        6.8144654088050309E-004  -7.6766461492566645E-011
  0.14378522012578618        6.8144654088050319E-004  -7.7916034278624777E-011
  0.14514811320754722        6.8144654088050319E-004  -7.9080413755698662E-011
  0.14651100628930824        6.8144654088050319E-004  -8.0261616865705197E-011
  0.14787389937106926        6.8144654088050319E-004  -8.1462139269045583E-011
  0.14923679245283028        6.8144654088050319E-004  -8.2684961244844925E-011
  0.15059968553459133        6.8144654088050319E-004  -8.3933547925653156E-011
  0.15196257861635232        6.8144654088050319E-004  -8.5211820356413721E-011
  0.15332547169811336        6.8144654088050330E-004  -8.6524115148318918E-011
  0.15468836477987435        6.8144654088050319E-004  -8.7875117843396303E-011
  0.15605125786163537        6.8144654088050319E-004  -8.9269772488785098E-011
  0.15741415094339639        6.8144654088050309E-004  -9.0713163427967985E-011
  0.15877704402515741        6.8144654088050309E-004  -9.2210370925156671E-011
  0.16013993710691843        6.8144654088050330E-004  -9.3766299560069613E-011
  0.16150283018867945        6.8144654088050319E-004  -9.5385479501032397E-011
  0.16286572327044047        6.8144654088050319E-004  -9.7071833836700297E-011
  0.16422861635220148        6.8144654088050319E-004  -9.8828432768738114E-011
  0.16559150943396253        6.8144654088050319E-004  -1.0065722325876898E-010
  0.16695440251572355        6.8144654088050319E-004  -1.0255874191618072E-010
  0.16831729559748454        6.8144654088050309E-004  -1.0453182769182936E-010
  0.16968018867924556        6.8144654088050319E-004  -1.0657334005531477E-010
  0.17104308176100658        6.8144654088050319E-004  -1.0867787973437219E-010
  0.17240597484276760        6.8144654088050319E-004  -1.1083754077044823E-010
  0.17376886792452859        6.8144654088050330E-004  -1.1304167905143673E-010
  0.17513176100628966        6.8144654088050319E-004  -1.1527669626335243E-010
  0.17649465408805065        6.8144654088050319E-004  -1.1752585036897221E-010
  0.17785754716981170        6.8144654088050319E-004  -1.1976889828230109E-010
  0.17922044025157269        6.8144654088050319E-004  -1.2198143933954201E-010
  0.18058333333333371        6.8144654088050319E-004  -1.2413542148822843E-010
  0.18194622641509475        6.8144654088050319E-004  -1.2619951582549673E-010
  0.18330911949685577        6.8144654088050319E-004  -1.2812631247971537E-010
  0.18467201257861676        6.8144654088050319E-004  -1.2983228733697951E-010
  0.18603490566037778        6.8144654088050319E-004  -1.3132700608202710E-010
  0.18739779874213880        6.8144654088050319E-004  -1.3263481318580621E-010
  0.18876069182389982        6.8144654088050319E-004  -1.3370543718132695E-010
  0.19012358490566084        6.8144654088050319E-004  -1.3452215925489367E-010
  0.19148647798742185        6.8144654088050319E-004  -1.3507517982510956E-010
  0.19284937106918287        6.8144654088050319E-004  -1.3536332750367519E-010
  0.19421226415094386        6.8144654088050319E-004  -1.3539533560903630E-010
  0.19557515723270494        6.8144654088050319E-004  -1.3519022844867220E-010
  0.19693805031446593        6.8144654088050319E-004  -1.3477723537201250E-010
  0.19830094339622695        6.8144654088050319E-004  -1.3419507938169016E-010
  0.19966383647798799        6.8144654088050319E-004  -1.3349050752922073E-010
  0.20102672955974901        6.8144654088050319E-004  -1.3271608442003572E-010
  0.20238962264151000        6.8144654088050319E-004  -1.3192728553678250E-010
  0.20375251572327099        6.8144654088050319E-004  -1.3117902759059325E-010
  0.20511540880503204        6.8144654088050319E-004  -1.3052181725272383E-010
  0.20647830188679309        6.8144654088050319E-004  -1.2999773823342224E-010
  0.20784119496855410        6.8144654088050319E-004  -1.2963648157475048E-010
  0.20920408805031510        6.8144654088050319E-004  -1.2945151283332739E-010
  0.21056698113207611        6.8144654088050319E-004  -1.2943661756394706E-010
  0.21192987421383713        6.8144654088050319E-004  -1.2956252506163002E-010
  0.21329276729559818        6.8144654088050319E-004  -1.2977269397277875E-010
  0.21465566037735917        6.8144654088050319E-004  -1.2733738239875141E-010
  0.21601855345912019        6.8144654088050319E-004  -6.0846985375457241E-011
  0.21670000000000000        6.8144654088050319E-004   0.0000000000000000     
   1.2517969876190163E-019   2.0443396226415096E-003   0.0000000000000000     
   6.8144654088050265E-004   2.0443396226415096E-003  -3.6162352242111857E-011
   2.0443396226415096E-003   2.0443396226415096E-003  -3.8441271547700209E-011
   3.4072327044025155E-003   2.0443396226415096E-003  -3.8544495284838836E-011
   4.7701257861635224E-003   2.0443396226415096E-003  -3.8838223011452529E-011
   6.1330188679245288E-003   2.0443396226415096E-003  -3.9247167858809330E-011
   7.4959119496855360E-003   2.0443396226415096E-003  -3.9706475744218713E-011
   8.8588050314465407E-003   2.0443396226415096E-003  -4.0168100174920256E-011
   1.0221698113207547E-002   2.0443396226415096E-003  -4.0586780699029128E-011
   1.1584591194968555E-002   2.0443396226415096E-003  -4.0933348646922371E-011
   1.2947484276729560E-002   2.0443396226415096E-003  -4.1195163101063897E-011
   1.4310377358490566E-002   2.0443396226415096E-003  -4.1389810193130316E-011
   1.5673270440251574E-002   2.0443396226415096E-003  -4.1525540210739094E-011
   1.7036163522012579E-002   2.0443396226415096E-003  -4.1603127310544688E-011
   1.8399056603773580E-002   2.0443396226415096E-003  -4.1626585209969022E-011
   1.9761949685534588E-002   2.0443396226415096E-003  -4.1601339332413251E-011
   2.1124842767295593E-002   2.0443396226415096E-003  -4.1533235852533696E-011
   2.2487735849056601E-002   2.0443396226415096E-003  -4.1428157839002234E-011
   2.3850628930817602E-002   2.0443396226415096E-003  -4.1291775990663055E-011
   2.5213522012578610E-002   2.0443396226415096E-003  -4.1129420374317159E-011
   2.6576415094339612E-002   2.0443396226415096E-003  -4.0946025538800556E-011
   2.7939308176100620E-002   2.0443396226415096E-003  -4.0746118998770632E-011
   2.9302201257861621E-002   2.0443396226415096E-003  -4.0533829891607870E-011
   3.0665094339622626E-002   2.0443396226415096E-003  -4.0312908659394353E-011
   3.2027987421383630E-002   2.0443396226415096E-003  -4.0086757443248476E-011
   3.3390880503144628E-002   2.0443396226415096E-003  -3.9858459243436696E-011
   3.4753773584905640E-002   2.0443396226415096E-003  -3.9630803492079072E-011
   3.6116666666666644E-002   2.0443396226415096E-003  -3.9406322359122123E-011
   3.7479559748427649E-002   2.0443396226415096E-003  -3.9187318373798691E-011
   3.8842452830188653E-002   2.0443396226415096E-003  -3.8975895530806161E-011
   4.0205345911949658E-002   2.0443396226415096E-003  -3.8773977626394281E-011
   4.1568238993710670E-002   2.0443396226415096E-003  -3.8583334905014182E-011
   4.2931132075471667E-002   2.0443396226415096E-003  -3.8405591216774901E-011
   4.4294025157232679E-002   2.0443396226415096E-003  -3.8242242977820959E-011
   4.5656918238993684E-002   2.0443396226415096E-003  -3.8094666405970693E-011
   4.7019811320754681E-002   2.0443396226415096E-003  -3.7964131051935237E-011
   4.8382704402515693E-002   2.0443396226415096E-003  -3.7851806725264568E-011
   4.9745597484276691E-002   2.0443396226415096E-003  -3.7758765796992513E-011
   5.1108490566037695E-002   2.0443396226415096E-003  -3.7685989673319312E-011
   5.2471383647798707E-002   2.0443396226415096E-003  -3.7634376836444101E-011
   5.3834276729559712E-002   2.0443396226415096E-003  -3.7604742261383557E-011
   5.5197169811320709E-002   2.0443396226415096E-003  -3.7597824107676106E-011
   5.6560062893081714E-002   2.0443396226415096E-003  -3.7614284718218234E-011
   5.7922955974842719E-002   2.0443396226415096E-003  -3.7654711138068031E-011
   5.9285849056603723E-002   2.0443396226415096E-003  -3.7719615825743584E-011
   6.0648742138364728E-002   2.0443396226415096E-003  -3.7809439132838320E-011
   6.2011635220125740E-002   2.0443396226415096E-003  -3.7924547485877185E-011
   6.3374528301886737E-002   2.0443396226415096E-003  -3.8065243033201354E-011
   6.4737421383647742E-002   2.0443396226415096E-003  -3.8231756864337965E-011
   6.6100314465408747E-002   2.0443396226415096E-003  -3.8424249876195534E-011
   6.7463207547169751E-002   2.0443396226415096E-003  -3.8642820659676882E-011
   6.8826100628930756E-002   2.0443396226415096E-003  -3.8887500417033121E-011
   7.0188993710691761E-002   2.0443396226415096E-003  -3.9158262549369201E-011
   7.1551886792452765E-002   2.0443396226415096E-003  -3.9455019550467384E-011
   7.2914779874213770E-002   2.0443396226415096E-003  -3.9777628628378652E-011
   7.4277672955974774E-002   2.0443396226415096E-003  -4.0125894085125379E-011