 title=T
 variables=x,y,T
 zone i=          55 ,j=          55
 
   0.0000000000000000        0.0000000000000000        0.0000000000000000     
   4.7169811320754717E-004   0.0000000000000000        25.081074951430693     
   1.4150943396226416E-003   0.0000000000000000        25.080382862216574     
   2.3584905660377362E-003   0.0000000000000000        25.079644924602505     
   3.3018867924528303E-003   0.0000000000000000        25.078864863985554     
   4.2452830188679245E-003   0.0000000000000000        25.078046783262291     
   5.1886792452830186E-003   0.0000000000000000        25.077194778003861     
   6.1320754716981127E-003   0.0000000000000000        25.076312726312409     
   7.0754716981132068E-003   0.0000000000000000        25.075404172910137     
   8.0188679245283018E-003   0.0000000000000000        25.074472261198025     
   8.9622641509433960E-003   0.0000000000000000        25.073519694534181     
   9.9056603773584901E-003   0.0000000000000000        25.072548716952475     
   1.0849056603773584E-002   0.0000000000000000        25.071561107483472     
   1.1792452830188678E-002   0.0000000000000000        25.070558184235960     
   1.2735849056603772E-002   0.0000000000000000        25.069540815531244     
   1.3679245283018867E-002   0.0000000000000000        25.068509436096292     
   1.4622641509433961E-002   0.0000000000000000        25.067464066831594     
   1.5566037735849055E-002   0.0000000000000000        25.066404337062124     
   1.6509433962264151E-002   0.0000000000000000        25.065329508474161     
   1.7452830188679245E-002   0.0000000000000000        25.064238500185468     
   1.8396226415094339E-002   0.0000000000000000        25.063129914578258     
   1.9339622641509433E-002   0.0000000000000000        25.062002063678790     
   2.0283018867924527E-002   0.0000000000000000        25.060852995991691     
   2.1226415094339621E-002   0.0000000000000000        25.059680523785293     
   2.2169811320754716E-002   0.0000000000000000        25.058482250913766     
   2.3113207547169810E-002   0.0000000000000000        25.057255601300088     
   2.4056603773584904E-002   0.0000000000000000        25.055997848166513     
   2.4999999999999998E-002   0.0000000000000000        25.054706144464184     
   2.5943396226415092E-002   0.0000000000000000        25.053377548134648     
   2.6886792452830186E-002   0.0000000000000000        25.052009043152051     
   2.7830188679245280E-002   0.0000000000000000        25.050597564584059     
   2.8773584905660374E-002   0.0000000000000000        25.049140026427619     
   2.9716981132075469E-002   0.0000000000000000        25.047633352283096     
   3.0660377358490563E-002   0.0000000000000000        25.046074508940169     
   3.1603773584905660E-002   0.0000000000000000        25.044460542919978     
   3.2547169811320754E-002   0.0000000000000000        25.042788619941891     
   3.3490566037735849E-002   0.0000000000000000        25.041056067202085     
   3.4433962264150943E-002   0.0000000000000000        25.039260418207753     
   3.5377358490566037E-002   0.0000000000000000        25.037399459738030     
   3.6320754716981131E-002   0.0000000000000000        25.035471280265739     
   3.7264150943396225E-002   0.0000000000000000        25.033474318917161     
   3.8207547169811319E-002   0.0000000000000000        25.031407413719542     
   3.9150943396226413E-002   0.0000000000000000        25.029269847568106     
   4.0094339622641507E-002   0.0000000000000000        25.027061389973674     
   4.1037735849056602E-002   0.0000000000000000        25.024782332360619     
   4.1981132075471696E-002   0.0000000000000000        25.022433514421834     
   4.2924528301886790E-002   0.0000000000000000        25.020016338970624     
   4.3867924528301884E-002   0.0000000000000000        25.017532772956411     
   4.4811320754716978E-002   0.0000000000000000        25.014985333127562     
   4.5754716981132072E-002   0.0000000000000000        25.012377056681363     
   4.6698113207547166E-002   0.0000000000000000        25.009711461311777     
   4.7641509433962261E-002   0.0000000000000000        25.006992511929926     
   4.8584905660377355E-002   0.0000000000000000        25.004224652741026     
   4.9528301886792449E-002   0.0000000000000000        25.001414382128186     
   5.0000000000000003E-002   0.0000000000000000        0.0000000000000000     
   0.0000000000000000        4.7169811320754717E-004   25.081399999999999     
   4.7169811320754717E-004   4.7169811320754717E-004   25.081074951430693     
   1.4150943396226416E-003   4.7169811320754717E-004   25.080382862216574     
   2.3584905660377362E-003   4.7169811320754717E-004   25.079644924602505     
   3.3018867924528303E-003   4.7169811320754717E-004   25.078864863985554     
   4.2452830188679245E-003   4.7169811320754717E-004   25.078046783262291     
   5.1886792452830186E-003   4.7169811320754717E-004   25.077194778003861     
   6.1320754716981127E-003   4.7169811320754717E-004   25.076312726312409     
   7.0754716981132068E-003   4.7169811320754717E-004   25.075404172910137     
   8.0188679245283018E-003   4.7169811320754717E-004   25.074472261198025     
   8.9622641509433960E-003   4.7169811320754717E-004   25.073519694534181     
   9.9056603773584901E-003   4.7169811320754717E-004   25.072548716952475     
   1.0849056603773584E-002   4.7169811320754717E-004   25.071561107483472     
   1.1792452830188678E-002   4.7169811320754717E-004   25.070558184235960     
   1.2735849056603772E-002   4.7169811320754717E-004   25.069540815531244     
   1.3679245283018867E-002   4.7169811320754717E-004   25.068509436096292     
   1.4622641509433961E-002   4.7169811320754717E-004   25.067464066831594     
   1.5566037735849055E-002   4.7169811320754717E-004   25.066404337062124     
   1.6509433962264151E-002   4.7169811320754717E-004   25.065329508474161     
   1.7452830188679245E-002   4.7169811320754717E-004   25.064238500185468     
   1.8396226415094339E-002   4.7169811320754717E-004   25.063129914578258     
   1.9339622641509433E-002   4.7169811320754717E-004   25.062002063678790     
   2.0283018867924527E-002   4.7169811320754717E-004   25.060852995991691     
   2.1226415094339621E-002   4.7169811320754717E-004   25.059680523785293     
   2.2169811320754716E-002   4.7169811320754717E-004   25.058482250913766     
   2.3113207547169810E-002   4.7169811320754717E-004   25.057255601300088     
   2.4056603773584904E-002   4.7169811320754717E-004   25.055997848166513     
   2.4999999999999998E-002   4.7169811320754717E-004   25.054706144464184     
   2.5943396226415092E-002   4.7169811320754717E-004   25.053377548134648     
   2.6886792452830186E-002   4.7169811320754717E-004   25.052009043152051     
   2.7830188679245280E-002   4.7169811320754717E-004   25.050597564584059     
   2.8773584905660374E-002   4.7169811320754717E-004   25.049140026427619     
   2.9716981132075469E-002   4.7169811320754717E-004   25.047633352283096     
   3.0660377358490563E-002   4.7169811320754717E-004   25.046074508940169     
   3.1603773584905660E-002   4.7169811320754717E-004   25.044460542919978     
   3.2547169811320754E-002   4.7169811320754717E-004   25.042788619941891     
   3.3490566037735849E-002   4.7169811320754717E-004   25.041056067202085     
   3.4433962264150943E-002   4.7169811320754717E-004   25.039260418207753     
   3.5377358490566037E-002   4.7169811320754717E-004   25.037399459738030     
   3.6320754716981131E-002   4.7169811320754717E-004   25.035471280265739     
   3.7264150943396225E-002   4.7169811320754717E-004   25.033474318917161     
   3.8207547169811319E-002   4.7169811320754717E-004   25.031407413719542     
   3.9150943396226413E-002   4.7169811320754717E-004   25.029269847568106     
   4.0094339622641507E-002   4.7169811320754717E-004   25.027061389973674     
   4.1037735849056602E-002   4.7169811320754717E-004   25.024782332360619     
   4.1981132075471696E-002   4.7169811320754717E-004   25.022433514421834     
   4.2924528301886790E-002   4.7169811320754717E-004   25.020016338970624     
   4.3867924528301884E-002   4.7169811320754717E-004   25.017532772956411     
   4.4811320754716978E-002   4.7169811320754717E-004   25.014985333127562     
   4.5754716981132072E-002   4.7169811320754717E-004   25.012377056681363     
   4.6698113207547166E-002   4.7169811320754717E-004   25.009711461311777     
   4.7641509433962261E-002   4.7169811320754717E-004   25.006992511929926     
   4.8584905660377355E-002   4.7169811320754717E-004   25.004224652741026     
   4.9528301886792449E-002   4.7169811320754717E-004   25.001414382128186     
   5.0000000000000003E-002   4.7169811320754717E-004   25.000000000000000     
   0.0000000000000000        1.4150943396226416E-003   25.081399999999999     
   4.7169811320754717E-004   1.4150943396226416E-003   25.081073215547754     
   1.4150943396226416E-003   1.4150943396226416E-003   25.080375012204843     
   2.3584905660377362E-003   1.4150943396226416E-003   25.079629718346734     
   3.3018867924528303E-003   1.4150943396226416E-003   25.078842057255319     
   4.2452830188679245E-003   1.4150943396226416E-003   25.078016549492098     
   5.1886792452830186E-003   1.4150943396226416E-003   25.077157487942223     
   6.1320754716981127E-003   1.4150943396226416E-003   25.076268858784168     
   7.0754716981132068E-003   1.4150943396226416E-003   25.075354270694657     
   8.0188679245283018E-003   1.4150943396226416E-003   25.074416904827871     
   8.9622641509433960E-003   1.4150943396226416E-003   25.073459484618830     
   9.9056603773584901E-003   1.4150943396226416E-003   25.072484261305071     
   1.0849056603773584E-002   1.4150943396226416E-003   25.071493011355702     
   1.1792452830188678E-002   1.4150943396226416E-003   25.070487042784197     
   1.2735849056603772E-002   1.4150943396226416E-003   25.069467207985490     
   1.3679245283018867E-002   1.4150943396226416E-003   25.068433921274277     
   1.4622641509433961E-002   1.4150943396226416E-003   25.067387179739075     
   1.5566037735849055E-002   1.4150943396226416E-003   25.066326586368803     
   1.6509433962264151E-002   1.4150943396226416E-003   25.065251374700644     
   1.7452830188679245E-002   1.4150943396226416E-003   25.064160434454227     
   1.8396226415094339E-002   1.4150943396226416E-003   25.063052337801214     
   1.9339622641509433E-002   1.4150943396226416E-003   25.061925366078210     
   2.0283018867924527E-002   1.4150943396226416E-003   25.060777536851958     
   2.1226415094339621E-002   1.4150943396226416E-003   25.059606631363685     
   2.2169811320754716E-002   1.4150943396226416E-003   25.058410222431021     
   2.3113207547169810E-002   1.4150943396226416E-003   25.057185703000652     
   2.4056603773584904E-002   1.4150943396226416E-003   25.055930315675809     
   2.4999999999999998E-002   1.4150943396226416E-003   25.054641188001884     
   2.5943396226415092E-002   1.4150943396226416E-003   25.053315357046234     
   2.6886792452830186E-002   1.4150943396226416E-003   25.051949784436236     
   2.7830188679245280E-002   1.4150943396226416E-003   25.050541381431856     
   2.8773584905660374E-002   1.4150943396226416E-003   25.049087036792095     
   2.9716981132075469E-002   1.4150943396226416E-003   25.047583647475214     
   3.0660377358490563E-002   1.4150943396226416E-003   25.046028152294909     
   3.1603773584905660E-002   1.4150943396226416E-003   25.044417568580098     
   3.2547169811320754E-002   1.4150943396226416E-003   25.042749031848036     
   3.3490566037735849E-002   1.4150943396226416E-003   25.041019838403269     
   3.4433962264150943E-002   1.4150943396226416E-003   25.039227490650813     
   3.5377358490566037E-002   1.4150943396226416E-003   25.037369744721495     
   3.6320754716981131E-002   1.4150943396226416E-003   25.035444659787558     
   3.7264150943396225E-002   1.4150943396226416E-003   25.033450648165825     
   3.8207547169811319E-002   1.4150943396226416E-003   25.031386524981691     
   3.9150943396226413E-002   1.4150943396226416E-003   25.029251555806830     
   4.0094339622641507E-002   1.4150943396226416E-003   25.027045500299266     
   4.1037735849056602E-002   1.4150943396226416E-003   25.024768649502242     
   4.1981132075471696E-002   1.4150943396226416E-003   25.022421854112515     
   4.2924528301886790E-002   1.4150943396226416E-003   25.020006540755649     
   4.3867924528301884E-002   1.4150943396226416E-003   25.017524713194689     
   4.4811320754716978E-002   1.4150943396226416E-003   25.014978935448102     
   4.5754716981132072E-002   1.4150943396226416E-003   25.012372293767818     
   4.6698113207547166E-002   1.4150943396226416E-003   25.009708333077704     
   4.7641509433962261E-002   1.4150943396226416E-003   25.006990959789420     
   4.8584905660377355E-002   1.4150943396226416E-003   25.004224289893781     
   4.9528301886792449E-002   1.4150943396226416E-003   25.001414268132603     
   5.0000000000000003E-002   1.4150943396226416E-003   25.000000000000000     
   0.0000000000000000        2.3584905660377362E-003   25.081399999999999     
   4.7169811320754717E-004   2.3584905660377362E-003   25.081066302195516     
   1.4150943396226416E-003   2.3584905660377362E-003   25.080353492301636     
   2.3584905660377362E-003   2.3584905660377362E-003   25.079593060812467     
   3.3018867924528303E-003   2.3584905660377362E-003   25.078790254541069     
   4.2452830188679245E-003   2.3584905660377362E-003   25.077949995558544     
   5.1886792452830186E-003   2.3584905660377362E-003   25.077076855397841     
   6.1320754716981127E-003   2.3584905660377362E-003   25.076175013790493     
   7.0754716981132068E-003   2.3584905660377362E-003   25.075248214717007     
   8.0188679245283018E-003   2.3584905660377362E-003   25.074299732218108     
   8.9622641509433960E-003   2.3584905660377362E-003   25.073332349808648     
   9.9056603773584901E-003   2.3584905660377362E-003   25.072348352380772     
   1.0849056603773584E-002   2.3584905660377362E-003   25.071349528306033     
   1.1792452830188678E-002   2.3584905660377362E-003   25.070337179474169     
   1.2735849056603772E-002   2.3584905660377362E-003   25.069312137262035     
   1.3679245283018867E-002   2.3584905660377362E-003   25.068274782786425     
   1.4622641509433961E-002   2.3584905660377362E-003   25.067225070135674     
   1.5566037735849055E-002   2.3584905660377362E-003   25.066162551584902     
   1.6509433962264151E-002   2.3584905660377362E-003   25.065086404059656     
   1.7452830188679245E-002   2.3584905660377362E-003   25.063995456321564     
   1.8396226415094339E-002   2.3584905660377362E-003   25.062888216551254     
   1.9339622641509433E-002   2.3584905660377362E-003   25.061762900126919     
   2.0283018867924527E-002   2.3584905660377362E-003   25.060617457541358     
   2.1226415094339621E-002   2.3584905660377362E-003   25.059449602479756     
   2.2169811320754716E-002   2.3584905660377362E-003   25.058256840189834     
   2.3113207547169810E-002   2.3584905660377362E-003   25.057036496355906     
   2.4056603773584904E-002   2.3584905660377362E-003   25.055785747311873     
   2.4999999999999998E-002   2.3584905660377362E-003   25.054501666305182     
   2.5943396226415092E-002   2.3584905660377362E-003   25.053181245795717     
   2.6886792452830186E-002   2.3584905660377362E-003   25.051821400792583     
   2.7830188679245280E-002   2.3584905660377362E-003   25.050418994154839     
   2.8773584905660374E-002   2.3584905660377362E-003   25.048970864659637     
   2.9716981132075469E-002   2.3584905660377362E-003   25.047473857917506     
   3.0660377358490563E-002   2.3584905660377362E-003   25.045924860279055     
   3.1603773584905660E-002   2.3584905660377362E-003   25.044320835837787     
   3.2547169811320754E-002   2.3584905660377362E-003   25.042658866583629     
   3.3490566037735849E-002   2.3584905660377362E-003   25.040936195677155     
   3.4433962264150943E-002   2.3584905660377362E-003   25.039150273688488     
   3.5377358490566037E-002   2.3584905660377362E-003   25.037298807443079     
   3.6320754716981131E-002   2.3584905660377362E-003   25.035379810899578     
   3.7264150943396225E-002   2.3584905660377362E-003   25.033391657167225     
   3.8207547169811319E-002   2.3584905660377362E-003   25.031333130423910     
   3.9150943396226413E-002   2.3584905660377362E-003   25.029203476076667     
   4.0094339622641507E-002   2.3584905660377362E-003   25.027002447054478     
   4.1037735849056602E-002   2.3584905660377362E-003   25.024730343614454     
   4.1981132075471696E-002   2.3584905660377362E-003   25.022388043522163     
   4.2924528301886790E-002   2.3584905660377362E-003   25.019977018910122     
   4.3867924528301884E-002   2.3584905660377362E-003   25.017499335526207     
   4.4811320754716978E-002   2.3584905660377362E-003   25.014957629367803     
   4.5754716981132072E-002   2.3584905660377362E-003   25.012355054438768     
   4.6698113207547166E-002   2.3584905660377362E-003   25.009695192161519     
   4.7641509433962261E-002   2.3584905660377362E-003   25.006981908616979     
   4.8584905660377355E-002   2.3584905660377362E-003   25.004219146663154     
   4.9528301886792449E-002   2.3584905660377362E-003   25.001412619715207     
   5.0000000000000003E-002   2.3584905660377362E-003   25.000000000000000     
   0.0000000000000000        3.3018867924528303E-003   25.081399999999999     
   4.7169811320754717E-004   3.3018867924528303E-003   25.081054751465874     
   1.4150943396226416E-003   3.3018867924528303E-003   25.080318471749109     
   2.3584905660377362E-003   3.3018867924528303E-003   25.079534424893431     
   3.3018867924528303E-003   3.3018867924528303E-003   25.078708259613759     
   4.2452830188679245E-003   3.3018867924528303E-003   25.077845281530223     
   5.1886792452830186E-003   3.3018867924528303E-003   25.076950386917517     
   6.1320754716981127E-003   3.3018867924528303E-003   25.076028016977276     
   7.0754716981132068E-003   3.3018867924528303E-003   25.075082119750643     
   8.0188679245283018E-003   3.3018867924528303E-003   25.074116122930072     
   8.9622641509433960E-003   3.3018867924528303E-003   25.073132919426911     
   9.9056603773584901E-003   3.3018867924528303E-003   25.072134864573147     
   1.0849056603773584E-002   3.3018867924528303E-003   25.071123782975729     
   1.1792452830188678E-002   3.3018867924528303E-003   25.070100982967990     
   1.2735849056603772E-002   3.3018867924528303E-003   25.069067276762716     
   1.3679245283018867E-002   3.3018867924528303E-003   25.068023004677837     
   1.4622641509433961E-002   3.3018867924528303E-003   25.066968062111812     
   1.5566037735849055E-002   3.3018867924528303E-003   25.065901928237203     
   1.6509433962264151E-002   3.3018867924528303E-003   25.064823695625822     
   1.7452830188679245E-002   3.3018867924528303E-003   25.063732100270279     
   1.8396226415094339E-002   3.3018867924528303E-003   25.062625551624894     
   1.9339622641509433E-002   3.3018867924528303E-003   25.061502162475737     
   2.0283018867924527E-002   3.3018867924528303E-003   25.060359778565864     
   2.1226415094339621E-002   3.3018867924528303E-003   25.059196008029613     
   2.2169811320754716E-002   3.3018867924528303E-003   25.058008250764495     
   2.3113207547169810E-002   3.3018867924528303E-003   25.056793728027511     
   2.4056603773584904E-002   3.3018867924528303E-003   25.055549513726749     
   2.4999999999999998E-002   3.3018867924528303E-003   25.054272600085003     
   2.5943396226415092E-002   3.3018867924528303E-003   25.052959912516332     
   2.6886792452830186E-002   3.3018867924528303E-003   25.051608297315273     
   2.7830188679245280E-002   3.3018867924528303E-003   25.050214547501209     
   2.8773584905660374E-002   3.3018867924528303E-003   25.048775431342953     
   2.9716981132075469E-002   3.3018867924528303E-003   25.047287723696549     
   3.0660377358490563E-002   3.3018867924528303E-003   25.045748240353237     
   3.1603773584905660E-002   3.3018867924528303E-003   25.044153875576903     
   3.2547169811320754E-002   3.3018867924528303E-003   25.042501642942291     
   3.3490566037735849E-002   3.3018867924528303E-003   25.040788719519888     
   3.4433962264150943E-002   3.3018867924528303E-003   25.039012493296642     
   3.5377358490566037E-002   3.3018867924528303E-003   25.037170613532112     
   3.6320754716981131E-002   3.3018867924528303E-003   25.035261043484525     
   3.7264150943396225E-002   3.3018867924528303E-003   25.033282114602724     
   3.8207547169811319E-002   3.3018867924528303E-003   25.031232580880797     
   3.9150943396226413E-002   3.3018867924528303E-003   25.029111671569485     
   4.0094339622641507E-002   3.3018867924528303E-003   25.026919139878665     
   4.1037735849056602E-002   3.3018867924528303E-003   25.024655304658477     
   4.1981132075471696E-002   3.3018867924528303E-003   25.022321081306231     
   4.2924528301886790E-002   3.3018867924528303E-003   25.019917997329706     
   4.3867924528301884E-002   3.3018867924528303E-003   25.017448187034994     
   4.4811320754716978E-002   3.3018867924528303E-003   25.014914358675828     
   4.5754716981132072E-002   3.3018867924528303E-003   25.012319725785563     
   4.6698113207547166E-002   3.3018867924528303E-003   25.009667891581223     
   4.7641509433962261E-002   3.3018867924528303E-003   25.006962673200931     
   4.8584905660377355E-002   3.3018867924528303E-003   25.004207859562364     
   4.9528301886792449E-002   3.3018867924528303E-003   25.001408932337899     
   5.0000000000000003E-002   3.3018867924528303E-003   25.000000000000000     
   0.0000000000000000        4.2452830188679245E-003   25.081399999999999     
   4.7169811320754717E-004   4.2452830188679245E-003   25.081038601970651     
   1.4150943396226416E-003   4.2452830188679245E-003   25.080269729918630     
   2.3584905660377362E-003   4.2452830188679245E-003   25.079453117957346     
   3.3018867924528303E-003   4.2452830188679245E-003   25.078594843561639     
   4.2452830188679245E-003   4.2452830188679245E-003   25.077700627194929     
   5.1886792452830186E-003   4.2452830188679245E-003   25.076775742464164     
   6.1320754716981127E-003   4.2452830188679245E-003   25.075824957529672     
   7.0754716981132068E-003   4.2452830188679245E-003   25.074852492434484     
   8.0188679245283018E-003   4.2452830188679245E-003   25.073861991631478     
   8.9622641509433960E-003   4.2452830188679245E-003   25.072856511376706     
   9.9056603773584901E-003   4.2452830188679245E-003   25.071838519976470     
   1.0849056603773584E-002   4.2452830188679245E-003   25.070809908517354     
   1.1792452830188678E-002   4.2452830188679245E-003   25.069772009790974     
   1.2735849056603772E-002   4.2452830188679245E-003   25.068725623301567     
   1.3679245283018867E-002   4.2452830188679245E-003   25.067671044548753     
   1.4622641509433961E-002   4.2452830188679245E-003   25.066608097076067     
   1.5566037735849055E-002   4.2452830188679245E-003   25.065536166093512     
   1.6509433962264151E-002   4.2452830188679245E-003   25.064454232762511     
   1.7452830188679245E-002   4.2452830188679245E-003   25.063360908487535     
   1.8396226415094339E-002   4.2452830188679245E-003   25.062254468773123     
   1.9339622641509433E-002   4.2452830188679245E-003   25.061132886396582     
   2.0283018867924527E-002   4.2452830188679245E-003   25.059993863805630     
   2.1226415094339621E-002   4.2452830188679245E-003   25.058834864775925     
   2.2169811320754716E-002   4.2452830188679245E-003   25.057653145482931     
   2.3113207547169810E-002   4.2452830188679245E-003   25.056445785299381     
   2.4056603773584904E-002   4.2452830188679245E-003   25.055209719613583     
   2.4999999999999998E-002   4.2452830188679245E-003   25.053941836547526     
   2.5943396226415092E-002   4.2452830188679245E-003   25.052638972800789     
   2.6886792452830186E-002   4.2452830188679245E-003   25.051297885478490     
   2.7830188679245280E-002   4.2452830188679245E-003   25.049915278822116     
   2.8773584905660374E-002   4.2452830188679245E-003   25.048487833438053     
   2.9716981132075469E-002   4.2452830188679245E-003   25.047012238239812     
   3.0660377358490563E-002   4.2452830188679245E-003   25.045485225377121     
   3.1603773584905660E-002   4.2452830188679245E-003   25.043903608409419     
   3.2547169811320754E-002   4.2452830188679245E-003   25.042264323915020     
   3.3490566037735849E-002   4.2452830188679245E-003   25.040564476648843     
   3.4433962264150943E-002   4.2452830188679245E-003   25.038801388184108     
   3.5377358490566037E-002   4.2452830188679245E-003   25.036972648772714     
   3.6320754716981131E-002   4.2452830188679245E-003   25.035076171846992     
   3.7264150943396225E-002   4.2452830188679245E-003   25.033110250209681     
   3.8207547169811319E-002   4.2452830188679245E-003   25.031073612484082     
   3.9150943396226413E-002   4.2452830188679245E-003   25.028965477815440     
   4.0094339622641507E-002   4.2452830188679245E-003   25.026785606135178     
   4.1037735849056602E-002   4.2452830188679245E-003   25.024534340500214     
   4.1981132075471696E-002   4.2452830188679245E-003   25.022212637125698     
   4.2924528301886790E-002   4.2452830188679245E-003   25.019822077686918     
   4.3867924528301884E-002   4.2452830188679245E-003   25.017364857332947     
   4.4811320754716978E-002   4.2452830188679245E-003   25.014843740566306     
   4.5754716981132072E-002   4.2452830188679245E-003   25.012261975644190     
   4.6698113207547166E-002   4.2452830188679245E-003   25.009623156040170     
   4.7641509433962261E-002   4.2452830188679245E-003   25.006931016576779     
   4.8584905660377355E-002   4.2452830188679245E-003   25.004189157845332     
   4.9528301886792449E-002   4.2452830188679245E-003   25.001402780820047     
   5.0000000000000003E-002   4.2452830188679245E-003   25.000000000000000     
   0.0000000000000000        5.1886792452830186E-003   25.081399999999999     
   4.7169811320754717E-004   5.1886792452830186E-003   25.081017747871876     
   1.4150943396226416E-003   5.1886792452830186E-003   25.080206870157419     
   2.3584905660377362E-003   5.1886792452830186E-003   25.079348358668764     
   3.3018867924528303E-003   5.1886792452830186E-003   25.078448787299322     
   4.2452830188679245E-003   5.1886792452830186E-003   25.077514353023872     
   5.1886792452830186E-003   5.1886792452830186E-003   25.076550773168393     
   6.1320754716981127E-003   5.1886792452830186E-003   25.075563213373592     
   7.0754716981132068E-003   5.1886792452830186E-003   25.074556235856988     
   8.0188679245283018E-003   5.1886792452830186E-003   25.073533766988490     
   8.9622641509433960E-003   5.1886792452830186E-003   25.072499082892499     
   9.9056603773584901E-003   5.1886792452830186E-003   25.071454810407804     
   1.0849056603773584E-002   5.1886792452830186E-003   25.070402940524115     
   1.1792452830188678E-002   5.1886792452830186E-003   25.069344851512781     
   1.2735849056603772E-002   5.1886792452830186E-003   25.068281339233753     
   1.3679245283018867E-002   5.1886792452830186E-003   25.067212652414849     
   1.4622641509433961E-002   5.1886792452830186E-003   25.066138531048921     
   1.5566037735849055E-002   5.1886792452830186E-003   25.065058246418921     
   1.6509433962264151E-002   5.1886792452830186E-003   25.063970641594306     
   1.7452830188679245E-002   5.1886792452830186E-003   25.062874171544738     
   1.8396226415094339E-002   5.1886792452830186E-003   25.061766942285782     
   1.9339622641509433E-002   5.1886792452830186E-003   25.060646748715055     
   2.0283018867924527E-002   5.1886792452830186E-003   25.059511110969808     
   2.1226415094339621E-002   5.1886792452830186E-003   25.058357309323192     
   2.2169811320754716E-002   5.1886792452830186E-003   25.057182417747999     
   2.3113207547169810E-002   5.1886792452830186E-003   25.055983336469847     
   2.4056603773584904E-002   5.1886792452830186E-003   25.054756826795604     
   2.4999999999999998E-002   5.1886792452830186E-003   25.053499654502243     
   2.5943396226415092E-002   5.1886792452830186E-003   25.052208546082145     
   2.6886792452830186E-002   5.1886792452830186E-003   25.050880149959767     
   2.7830188679245280E-002   5.1886792452830186E-003   25.049511064430533     
   2.8773584905660374E-002   5.1886792452830186E-003   25.048097867792428     
   2.9716981132075469E-002   5.1886792452830186E-003   25.046637151004514     
   3.0660377358490563E-002   5.1886792452830186E-003   25.045125553243196     
   3.1603773584905660E-002   5.1886792452830186E-003   25.043559800692396     
   3.2547169811320754E-002   5.1886792452830186E-003   25.041936748863328     
   3.3490566037735849E-002   5.1886792452830186E-003   25.040253428599257     
   3.4433962264150943E-002   5.1886792452830186E-003   25.038507095760746     
   3.5377358490566037E-002   5.1886792452830186E-003   25.036695284321038     
   3.6320754716981131E-002   5.1886792452830186E-003   25.034815862264459     
   3.7264150943396225E-002   5.1886792452830186E-003   25.032867089257806     
   3.8207547169811319E-002   5.1886792452830186E-003   25.030847674496520     
   3.9150943396226413E-002   5.1886792452830186E-003   25.028756832486291     
   4.0094339622641507E-002   5.1886792452830186E-003   25.026594333711028     
   4.1037735849056602E-002   5.1886792452830186E-003   25.024360546241539     
   4.1981132075471696E-002   5.1886792452830186E-003   25.022056463298952     
   4.2924528301886790E-002   5.1886792452830186E-003   25.019683710651886     
   4.3867924528301884E-002   5.1886792452830186E-003   25.017244526502811     