 title=u
 variables=x,y,u
 zone i=         121 ,j=         121
 
   0.0000000000000000        0.0000000000000000        0.0000000000000000     
   9.1050420168067229E-004   0.0000000000000000        0.0000000000000000     
   2.7315126050420167E-003   0.0000000000000000        0.0000000000000000     
   4.5525210084033617E-003   0.0000000000000000        0.0000000000000000     
   6.3735294117647067E-003   0.0000000000000000        0.0000000000000000     
   8.1945378151260517E-003   0.0000000000000000        0.0000000000000000     
   1.0015546218487397E-002   0.0000000000000000        0.0000000000000000     
   1.1836554621848742E-002   0.0000000000000000        0.0000000000000000     
   1.3657563025210087E-002   0.0000000000000000        0.0000000000000000     
   1.5478571428571432E-002   0.0000000000000000        0.0000000000000000     
   1.7299579831932775E-002   0.0000000000000000        0.0000000000000000     
   1.9120588235294118E-002   0.0000000000000000        0.0000000000000000     
   2.0941596638655462E-002   0.0000000000000000        0.0000000000000000     
   2.2762605042016805E-002   0.0000000000000000        0.0000000000000000     
   2.4583613445378148E-002   0.0000000000000000        0.0000000000000000     
   2.6404621848739492E-002   0.0000000000000000        0.0000000000000000     
   2.8225630252100835E-002   0.0000000000000000        0.0000000000000000     
   3.0046638655462178E-002   0.0000000000000000        0.0000000000000000     
   3.1867647058823521E-002   0.0000000000000000        0.0000000000000000     
   3.3688655462184865E-002   0.0000000000000000        0.0000000000000000     
   3.5509663865546208E-002   0.0000000000000000        0.0000000000000000     
   3.7330672268907551E-002   0.0000000000000000        0.0000000000000000     
   3.9151680672268895E-002   0.0000000000000000        0.0000000000000000     
   4.0972689075630238E-002   0.0000000000000000        0.0000000000000000     
   4.2793697478991581E-002   0.0000000000000000        0.0000000000000000     
   4.4614705882352924E-002   0.0000000000000000        0.0000000000000000     
   4.6435714285714268E-002   0.0000000000000000        0.0000000000000000     
   4.8256722689075611E-002   0.0000000000000000        0.0000000000000000     
   5.0077731092436954E-002   0.0000000000000000        0.0000000000000000     
   5.1898739495798298E-002   0.0000000000000000        0.0000000000000000     
   5.3719747899159641E-002   0.0000000000000000        0.0000000000000000     
   5.5540756302520984E-002   0.0000000000000000        0.0000000000000000     
   5.7361764705882327E-002   0.0000000000000000        0.0000000000000000     
   5.9182773109243671E-002   0.0000000000000000        0.0000000000000000     
   6.1003781512605014E-002   0.0000000000000000        0.0000000000000000     
   6.2824789915966364E-002   0.0000000000000000        0.0000000000000000     
   6.4645798319327707E-002   0.0000000000000000        0.0000000000000000     
   6.6466806722689051E-002   0.0000000000000000        0.0000000000000000     
   6.8287815126050394E-002   0.0000000000000000        0.0000000000000000     
   7.0108823529411737E-002   0.0000000000000000        0.0000000000000000     
   7.1929831932773081E-002   0.0000000000000000        0.0000000000000000     
   7.3750840336134424E-002   0.0000000000000000        0.0000000000000000     
   7.5571848739495767E-002   0.0000000000000000        0.0000000000000000     
   7.7392857142857110E-002   0.0000000000000000        0.0000000000000000     
   7.9213865546218454E-002   0.0000000000000000        0.0000000000000000     
   8.1034873949579797E-002   0.0000000000000000        0.0000000000000000     
   8.2855882352941140E-002   0.0000000000000000        0.0000000000000000     
   8.4676890756302484E-002   0.0000000000000000        0.0000000000000000     
   8.6497899159663827E-002   0.0000000000000000        0.0000000000000000     
   8.8318907563025170E-002   0.0000000000000000        0.0000000000000000     
   9.0139915966386513E-002   0.0000000000000000        0.0000000000000000     
   9.1960924369747857E-002   0.0000000000000000        0.0000000000000000     
   9.3781932773109200E-002   0.0000000000000000        0.0000000000000000     
   9.5602941176470543E-002   0.0000000000000000        0.0000000000000000     
   9.7423949579831887E-002   0.0000000000000000        0.0000000000000000     
   9.9244957983193230E-002   0.0000000000000000        0.0000000000000000     
  0.10106596638655457        0.0000000000000000        0.0000000000000000     
  0.10288697478991592        0.0000000000000000        0.0000000000000000     
  0.10470798319327726        0.0000000000000000        0.0000000000000000     
  0.10652899159663860        0.0000000000000000        0.0000000000000000     
  0.10834999999999995        0.0000000000000000        0.0000000000000000     
  0.11017100840336129        0.0000000000000000        0.0000000000000000     
  0.11199201680672263        0.0000000000000000        0.0000000000000000     
  0.11381302521008398        0.0000000000000000        0.0000000000000000     
  0.11563403361344532        0.0000000000000000        0.0000000000000000     
  0.11745504201680666        0.0000000000000000        0.0000000000000000     
  0.11927605042016801        0.0000000000000000        0.0000000000000000     
  0.12109705882352935        0.0000000000000000        0.0000000000000000     
  0.12291806722689069        0.0000000000000000        0.0000000000000000     
  0.12473907563025204        0.0000000000000000        0.0000000000000000     
  0.12656008403361338        0.0000000000000000        0.0000000000000000     
  0.12838109243697474        0.0000000000000000        0.0000000000000000     
  0.13020210084033609        0.0000000000000000        0.0000000000000000     
  0.13202310924369745        0.0000000000000000        0.0000000000000000     
  0.13384411764705881        0.0000000000000000        0.0000000000000000     
  0.13566512605042017        0.0000000000000000        0.0000000000000000     
  0.13748613445378152        0.0000000000000000        0.0000000000000000     
  0.13930714285714288        0.0000000000000000        0.0000000000000000     
  0.14112815126050424        0.0000000000000000        0.0000000000000000     
  0.14294915966386559        0.0000000000000000        0.0000000000000000     
  0.14477016806722695        0.0000000000000000        0.0000000000000000     
  0.14659117647058831        0.0000000000000000        0.0000000000000000     
  0.14841218487394967        0.0000000000000000        0.0000000000000000     
  0.15023319327731102        0.0000000000000000        0.0000000000000000     
  0.15205420168067238        0.0000000000000000        0.0000000000000000     
  0.15387521008403374        0.0000000000000000        0.0000000000000000     
  0.15569621848739509        0.0000000000000000        0.0000000000000000     
  0.15751722689075645        0.0000000000000000        0.0000000000000000     
  0.15933823529411781        0.0000000000000000        0.0000000000000000     
  0.16115924369747917        0.0000000000000000        0.0000000000000000     
  0.16298025210084052        0.0000000000000000        0.0000000000000000     
  0.16480126050420188        0.0000000000000000        0.0000000000000000     
  0.16662226890756324        0.0000000000000000        0.0000000000000000     
  0.16844327731092459        0.0000000000000000        0.0000000000000000     
  0.17026428571428595        0.0000000000000000        0.0000000000000000     
  0.17208529411764731        0.0000000000000000        0.0000000000000000     
  0.17390630252100867        0.0000000000000000        0.0000000000000000     
  0.17572731092437002        0.0000000000000000        0.0000000000000000     
  0.17754831932773138        0.0000000000000000        0.0000000000000000     
  0.17936932773109274        0.0000000000000000        0.0000000000000000     
  0.18119033613445409        0.0000000000000000        0.0000000000000000     
  0.18301134453781545        0.0000000000000000        0.0000000000000000     
  0.18483235294117681        0.0000000000000000        0.0000000000000000     
  0.18665336134453817        0.0000000000000000        0.0000000000000000     
  0.18847436974789952        0.0000000000000000        0.0000000000000000     
  0.19029537815126088        0.0000000000000000        0.0000000000000000     
  0.19211638655462224        0.0000000000000000        0.0000000000000000     
  0.19393739495798359        0.0000000000000000        0.0000000000000000     
  0.19575840336134495        0.0000000000000000        0.0000000000000000     
  0.19757941176470631        0.0000000000000000        0.0000000000000000     
  0.19940042016806767        0.0000000000000000        0.0000000000000000     
  0.20122142857142902        0.0000000000000000        0.0000000000000000     
  0.20304243697479038        0.0000000000000000        0.0000000000000000     
  0.20486344537815174        0.0000000000000000        0.0000000000000000     
  0.20668445378151309        0.0000000000000000        0.0000000000000000     
  0.20850546218487445        0.0000000000000000        0.0000000000000000     
  0.21032647058823581        0.0000000000000000        0.0000000000000000     
  0.21214747899159717        0.0000000000000000        0.0000000000000000     
  0.21396848739495852        0.0000000000000000        0.0000000000000000     
  0.21578949579831988        0.0000000000000000        0.0000000000000000     
  0.21670000000000000        0.0000000000000000        0.0000000000000000     
   5.5752302809922577E-020   9.1050420168067229E-004   0.0000000000000000     
   9.1050420168067240E-004   9.1050420168067219E-004  -1.4346525853728176E-004
   2.7315126050420167E-003   9.1050420168067240E-004  -6.2629436525001698E-004
   4.5525210084033608E-003   9.1050420168067229E-004  -1.1610716410550021E-003
   6.3735294117647067E-003   9.1050420168067240E-004  -1.4862967092880239E-003
   8.1945378151260517E-003   9.1050420168067229E-004  -1.6575577523687147E-003
   1.0015546218487397E-002   9.1050420168067229E-004  -1.6994490532643766E-003
   1.1836554621848742E-002   9.1050420168067229E-004  -1.6631855005984466E-003
   1.3657563025210087E-002   9.1050420168067229E-004  -1.5791454565264431E-003
   1.5478571428571430E-002   9.1050420168067229E-004  -1.4720120364495322E-003
   1.7299579831932779E-002   9.1050420168067229E-004  -1.3574399650273870E-003
   1.9120588235294118E-002   9.1050420168067229E-004  -1.2454050445720505E-003
   2.0941596638655462E-002   9.1050420168067229E-004  -1.1415571168955617E-003
   2.2762605042016801E-002   9.1050420168067229E-004  -1.0486564984347779E-003
   2.4583613445378148E-002   9.1050420168067240E-004  -9.6755389075772399E-004
   2.6404621848739492E-002   9.1050420168067229E-004  -8.9795199875723894E-004
   2.8225630252100835E-002   9.1050420168067229E-004  -8.3892026556921034E-004
   3.0046638655462178E-002   9.1050420168067229E-004  -7.8924209518749613E-004
   3.1867647058823521E-002   9.1050420168067229E-004  -7.4762881990975236E-004
   3.3688655462184865E-002   9.1050420168067229E-004  -7.1284356455461107E-004
   3.5509663865546201E-002   9.1050420168067229E-004  -6.8376407478788791E-004
   3.7330672268907551E-002   9.1050420168067229E-004  -6.5940761221663555E-004
   3.9151680672268895E-002   9.1050420168067229E-004  -6.3893343119904994E-004
   4.0972689075630238E-002   9.1050420168067229E-004  -6.2163329132203845E-004
   4.2793697478991581E-002   9.1050420168067229E-004  -6.0691650238665820E-004
   4.4614705882352924E-002   9.1050420168067240E-004  -5.9429337578784677E-004
   4.6435714285714268E-002   9.1050420168067219E-004  -5.8335920625118430E-004
   4.8256722689075611E-002   9.1050420168067219E-004  -5.7377982573684344E-004
   5.0077731092436954E-002   9.1050420168067229E-004  -5.6527912439284088E-004
   5.1898739495798298E-002   9.1050420168067229E-004  -5.5762857357166218E-004
   5.3719747899159634E-002   9.1050420168067240E-004  -5.5063860230856001E-004
   5.5540756302520991E-002   9.1050420168067219E-004  -5.4415160029367370E-004
   5.7361764705882327E-002   9.1050420168067219E-004  -5.3803630097266940E-004
   5.9182773109243671E-002   9.1050420168067229E-004  -5.3218330976092328E-004
   6.1003781512605014E-002   9.1050420168067229E-004  -5.2650156764527352E-004
   6.2824789915966378E-002   9.1050420168067229E-004  -5.2091557024490462E-004
   6.4645798319327707E-002   9.1050420168067229E-004  -5.1536319166845391E-004
   6.6466806722689065E-002   9.1050420168067229E-004  -5.0979398892995857E-004
   6.8287815126050394E-002   9.1050420168067219E-004  -5.0416788541444513E-004
   7.0108823529411737E-002   9.1050420168067229E-004  -4.9845415082866483E-004
   7.1929831932773081E-002   9.1050420168067229E-004  -4.9263061062278929E-004
   7.3750840336134424E-002   9.1050420168067229E-004  -4.8668303046323850E-004
   7.5571848739495767E-002   9.1050420168067229E-004  -4.8060463152053474E-004
   7.7392857142857110E-002   9.1050420168067229E-004  -4.7439570058335377E-004
   7.9213865546218468E-002   9.1050420168067229E-004  -4.6806326574188440E-004
   8.1034873949579797E-002   9.1050420168067229E-004  -4.6162081392970205E-004
   8.2855882352941140E-002   9.1050420168067229E-004  -4.5508803129090078E-004
   8.4676890756302484E-002   9.1050420168067229E-004  -4.4849055135819023E-004
   8.6497899159663827E-002   9.1050420168067229E-004  -4.4185969956776083E-004
   8.8318907563025170E-002   9.1050420168067219E-004  -4.3523222584532407E-004
   9.0139915966386500E-002   9.1050420168067219E-004  -4.2865002010426942E-004
   9.1960924369747871E-002   9.1050420168067219E-004  -4.2215980841989198E-004
   9.3781932773109200E-002   9.1050420168067229E-004  -4.1581283113977007E-004
   9.5602941176470543E-002   9.1050420168067219E-004  -4.0966450743421153E-004
   9.7423949579831901E-002   9.1050420168067219E-004  -4.0377409660203488E-004
   9.9244957983193244E-002   9.1050420168067229E-004  -3.9820437193495276E-004
  0.10106596638655457        9.1050420168067229E-004  -3.9302133450744032E-004
  0.10288697478991592        9.1050420168067229E-004  -3.8829402123209526E-004
  0.10470798319327726        9.1050420168067240E-004  -3.8409445304529521E-004
  0.10652899159663862        9.1050420168067219E-004  -3.8049800881840375E-004
  0.10834999999999995        9.1050420168067240E-004  -3.7758420875245877E-004
  0.11017100840336130        9.1050420168067229E-004  -3.7543874599273511E-004
  0.11199201680672263        9.1050420168067229E-004  -3.7415933422081107E-004
  0.11381302521008398        9.1050420168067240E-004  -3.7385908164223370E-004
  0.11563403361344532        9.1050420168067229E-004  -3.7464771982130513E-004
  0.11745504201680666        9.1050420168067229E-004  -3.7662510658008000E-004
  0.11927605042016801        9.1050420168067229E-004  -3.7990129658827833E-004
  0.12109705882352935        9.1050420168067229E-004  -3.8459497401710995E-004
  0.12291806722689069        9.1050420168067229E-004  -3.9083496941252991E-004
  0.12473907563025204        9.1050420168067229E-004  -3.9876058701696559E-004
  0.12656008403361341        9.1050420168067229E-004  -4.0852188069984586E-004
  0.12838109243697474        9.1050420168067229E-004  -4.2027999819302381E-004
  0.13020210084033609        9.1050420168067229E-004  -4.3420741228748544E-004
  0.13202310924369745        9.1050420168067229E-004  -4.5048797641004951E-004
  0.13384411764705884        9.1050420168067229E-004  -4.6931667879957596E-004
  0.13566512605042017        9.1050420168067229E-004  -4.9089897811217299E-004
  0.13748613445378149        9.1050420168067219E-004  -5.1544958713825107E-004
  0.13930714285714288        9.1050420168067229E-004  -5.4319056116107186E-004
  0.14112815126050424        9.1050420168067219E-004  -5.7434853531473571E-004
  0.14294915966386559        9.1050420168067229E-004  -6.0915094576298586E-004
  0.14477016806722695        9.1050420168067229E-004  -6.4782106353532146E-004
  0.14659117647058831        9.1050420168067229E-004  -6.9057166988315617E-004
  0.14841218487394967        9.1050420168067219E-004  -7.3759721033328908E-004
  0.15023319327731102        9.1050420168067229E-004  -7.8906428384374649E-004
  0.15205420168067238        9.1050420168067229E-004  -8.4510035641472748E-004
  0.15387521008403374        9.1050420168067229E-004  -9.0578063783413318E-004
  0.15569621848739509        9.1050420168067219E-004  -9.7111312846828951E-004
  0.15751722689075642        9.1050420168067240E-004  -1.0410219317517108E-003
  0.15933823529411781        9.1050420168067229E-004  -1.1153290380083057E-003
  0.16115924369747919        9.1050420168067240E-004  -1.1937349149790325E-003
  0.16298025210084052        9.1050420168067229E-004  -1.2757983860130740E-003
  0.16480126050420188        9.1050420168067219E-004  -1.3609164304624795E-003
  0.16662226890756321        9.1050420168067229E-004  -1.4483046898768864E-003
  0.16844327731092459        9.1050420168067229E-004  -1.5369795869654894E-003
  0.17026428571428595        9.1050420168067229E-004  -1.6257430436387981E-003
  0.17208529411764731        9.1050420168067229E-004  -1.7131707600435509E-003
  0.17390630252100869        9.1050420168067229E-004  -1.7976049364077924E-003
  0.17572731092437002        9.1050420168067219E-004  -1.8771520087986664E-003
  0.17754831932773135        9.1050420168067229E-004  -1.9496863227738798E-003
  0.17936932773109274        9.1050420168067219E-004  -2.0128573658889422E-003
  0.18119033613445409        9.1050420168067219E-004  -2.0641238150075738E-003
  0.18301134453781545        9.1050420168067229E-004  -2.1007535608473633E-003
  0.18483235294117681        9.1050420168067229E-004  -2.1199742042117648E-003
  0.18665336134453817        9.1050420168067240E-004  -2.1196780025798910E-003
  0.18847436974789952        9.1050420168067229E-004  -2.0971878051076320E-003
  0.19029537815126088        9.1050420168067229E-004  -2.0498683577096612E-003
  0.19211638655462224        9.1050420168067240E-004  -1.9760127438083436E-003
  0.19393739495798359        9.1050420168067229E-004  -1.8748995702033899E-003
  0.19575840336134498        9.1050420168067240E-004  -1.7469995942260216E-003
  0.19757941176470631        9.1050420168067229E-004  -1.5941258206803551E-003
  0.19940042016806767        9.1050420168067229E-004  -1.4195383185390707E-003
  0.20122142857142905        9.1050420168067240E-004  -1.2279825852446417E-003
  0.20304243697479038        9.1050420168067240E-004  -1.0255801886501249E-003
  0.20486344537815174        9.1050420168067229E-004  -8.1969133564997363E-004
  0.20668445378151312        9.1050420168067229E-004  -6.1833178317406213E-004
  0.20850546218487445        9.1050420168067229E-004  -4.3040047945709143E-004
  0.21032647058823581        9.1050420168067229E-004  -2.6343689554397251E-004
  0.21214747899159717        9.1050420168067240E-004  -1.2837560743532027E-004
  0.21396848739495852        9.1050420168067229E-004  -2.7067246210654133E-005
  0.21578949579831988        9.1050420168067240E-004   8.4263270696185441E-006
  0.21670000000000000        9.1050420168067240E-004   0.0000000000000000     
   1.6725690842976769E-019   2.7315126050420167E-003   0.0000000000000000     
   9.1050420168067153E-004   2.7315126050420167E-003  -2.0958250275786259E-004
   2.7315126050420162E-003   2.7315126050420167E-003  -9.8789859200245234E-004
   4.5525210084033617E-003   2.7315126050420162E-003  -1.9571793882610274E-003
   6.3735294117647067E-003   2.7315126050420167E-003  -2.6786037623776561E-003
   8.1945378151260517E-003   2.7315126050420167E-003  -3.1643600825581137E-003
   1.0015546218487397E-002   2.7315126050420167E-003  -3.4131145278582975E-003
   1.1836554621848742E-002   2.7315126050420167E-003  -3.4865531237492646E-003
   1.3657563025210087E-002   2.7315126050420167E-003  -3.4400442128220219E-003
   1.5478571428571430E-002   2.7315126050420167E-003  -3.3185768554475584E-003
   1.7299579831932772E-002   2.7315126050420167E-003  -3.1562681898894005E-003
   1.9120588235294118E-002   2.7315126050420167E-003  -2.9771288923087775E-003
   2.0941596638655462E-002   2.7315126050420171E-003  -2.7970749022750464E-003
   2.2762605042016805E-002   2.7315126050420167E-003  -2.6259400752707217E-003
   2.4583613445378152E-002   2.7315126050420167E-003  -2.4691200436558940E-003
   2.6404621848739495E-002   2.7315126050420167E-003  -2.3289882024944020E-003
   2.8225630252100835E-002   2.7315126050420167E-003  -2.2059539431542176E-003
   3.0046638655462178E-002   2.7315126050420167E-003  -2.0992459822198363E-003
   3.1867647058823521E-002   2.7315126050420167E-003  -2.0074534567090991E-003
   3.3688655462184865E-002   2.7315126050420167E-003  -1.9288855335611412E-003
   3.5509663865546208E-002   2.7315126050420167E-003  -1.8617961198595745E-003
   3.7330672268907551E-002   2.7315126050420167E-003  -1.8045148455449328E-003
   3.9151680672268888E-002   2.7315126050420167E-003  -1.7555151482718503E-003
   4.0972689075630238E-002   2.7315126050420162E-003  -1.7134423370947754E-003
   4.2793697478991574E-002   2.7315126050420167E-003  -1.6771175314744832E-003
   4.4614705882352917E-002   2.7315126050420167E-003  -1.6455281785832804E-003
   4.6435714285714261E-002   2.7315126050420167E-003  -1.6178120215129207E-003
   4.8256722689075611E-002   2.7315126050420167E-003  -1.5932387406194250E-003
   5.0077731092436954E-002   2.7315126050420167E-003  -1.5711917076449043E-003
   5.1898739495798304E-002   2.7315126050420167E-003  -1.5511511437298221E-003
   5.3719747899159641E-002   2.7315126050420167E-003  -1.5326792594919875E-003
   5.5540756302520984E-002   2.7315126050420167E-003  -1.5154075342268258E-003
   5.7361764705882334E-002   2.7315126050420167E-003  -1.4990260580141765E-003
   5.9182773109243671E-002   2.7315126050420167E-003  -1.4832747444028097E-003
   6.1003781512605014E-002   2.7315126050420167E-003  -1.4679361751566177E-003
   6.2824789915966364E-002   2.7315126050420167E-003  -1.4528298320927457E-003
   6.4645798319327707E-002   2.7315126050420167E-003  -1.4378074853472844E-003
   6.6466806722689051E-002   2.7315126050420167E-003  -1.4227495311913084E-003
   6.8287815126050394E-002   2.7315126050420167E-003  -1.4075620992239799E-003
   7.0108823529411737E-002   2.7315126050420167E-003  -1.3921747749124878E-003
   7.1929831932773095E-002   2.7315126050420162E-003  -1.3765388073580271E-003
   7.3750840336134424E-002   2.7315126050420167E-003  -1.3606256932354632E-003
   7.5571848739495767E-002   2.7315126050420167E-003  -1.3444260459969852E-003
   7.7392857142857110E-002   2.7315126050420162E-003  -1.3279486749828340E-003
   7.9213865546218454E-002   2.7315126050420167E-003  -1.3112198123543942E-003
   8.1034873949579797E-002   2.7315126050420167E-003  -1.2942824372233833E-003
   8.2855882352941140E-002   2.7315126050420167E-003  -1.2771956563453187E-003
   8.4676890756302498E-002   2.7315126050420162E-003  -1.2600341096865675E-003
   8.6497899159663827E-002   2.7315126050420167E-003  -1.2428873773933781E-003
   8.8318907563025170E-002   2.7315126050420167E-003  -1.2258593724756850E-003
   9.0139915966386513E-002   2.7315126050420167E-003  -1.2090677114040790E-003
   9.1960924369747857E-002   2.7315126050420167E-003  -1.1926430629153708E-003
   9.3781932773109200E-002   2.7315126050420167E-003  -1.1767284851251138E-003
   9.5602941176470543E-002   2.7315126050420167E-003  -1.1614787715375835E-003
   9.7423949579831887E-002   2.7315126050420167E-003  -1.1470598434625355E-003
   9.9244957983193230E-002   2.7315126050420167E-003  -1.1336482434415845E-003
  0.10106596638655457        2.7315126050420167E-003  -1.1214308183045709E-003
  0.10288697478991592        2.7315126050420167E-003  -1.1106047269838141E-003
  0.10470798319327726        2.7315126050420167E-003  -1.1013779167725656E-003
  0.10652899159663860        2.7315126050420167E-003  -1.0939705646271277E-003
  0.10834999999999995        2.7315126050420167E-003  -1.0886172720268445E-003
  0.11017100840336129        2.7315126050420167E-003  -1.0855718627270469E-003
  0.11199201680672263        2.7315126050420167E-003  -1.0851155763683541E-003
  0.11381302521008398        2.7315126050420167E-003  -1.0875676872552267E-003
  0.11563403361344532        2.7315126050420167E-003  -1.0931763645536249E-003
  0.11745504201680665        2.7315126050420167E-003  -1.1022470456149536E-003
  0.11927605042016799        2.7315126050420167E-003  -1.1150917686499945E-003
  0.12109705882352935        2.7315126050420167E-003  -1.1320483076271005E-003
  0.12291806722689069        2.7315126050420167E-003  -1.1534768829175733E-003
  0.12473907563025204        2.7315126050420167E-003  -1.1797616637695975E-003
  0.12656008403361338        2.7315126050420167E-003  -1.2113107480447782E-003
  0.12838109243697471        2.7315126050420167E-003  -1.2485558846843255E-003
  0.13020210084033609        2.7315126050420167E-003  -1.2919514817036841E-003
  0.13202310924369745        2.7315126050420167E-003  -1.3419727382247585E-003
  0.13384411764705881        2.7315126050420167E-003  -1.3991126058988596E-003
  0.13566512605042014        2.7315126050420167E-003  -1.4638772788977366E-003
  0.13748613445378155        2.7315126050420167E-003  -1.5367798810703795E-003
  0.13930714285714288        2.7315126050420167E-003  -1.6183320060898726E-003
  0.14112815126050424        2.7315126050420167E-003  -1.7090327615853363E-003
  0.14294915966386559        2.7315126050420162E-003  -1.8093549793847992E-003
  0.14477016806722698        2.7315126050420167E-003  -1.9197282846459133E-003
  0.14659117647058831        2.7315126050420167E-003  -2.0405187723968750E-003
  0.14841218487394967        2.7315126050420167E-003  -2.1720051257595493E-003
  0.15023319327731102        2.7315126050420167E-003  -2.3143511303254510E-003
  0.15205420168067238        2.7315126050420167E-003  -2.4675746969206568E-003
  0.15387521008403374        2.7315126050420167E-003  -2.6315137013021772E-003
  0.15569621848739509        2.7315126050420167E-003  -2.8057891822483648E-003
  0.15751722689075645        2.7315126050420167E-003  -2.9897667032424665E-003
  0.15933823529411781        2.7315126050420171E-003  -3.1825169671348126E-003
  0.16115924369747917        2.7315126050420167E-003  -3.3827770624938946E-003
  0.16298025210084052        2.7315126050420162E-003  -3.5889139944850082E-003
  0.16480126050420188        2.7315126050420167E-003  -3.7988923878163401E-003
  0.16662226890756324        2.7315126050420167E-003  -4.0102484184776337E-003
  0.16844327731092459        2.7315126050420167E-003  -4.2200721086905211E-003
  0.17026428571428595        2.7315126050420167E-003  -4.4250001040458909E-003
  0.17208529411764734        2.7315126050420167E-003  -4.6212209070045094E-003
  0.17390630252100869        2.7315126050420167E-003  -4.8044944412239899E-003
  0.17572731092437002        2.7315126050420167E-003  -4.9701879471558763E-003
  0.17754831932773138        2.7315126050420167E-003  -5.1133297112275836E-003
  0.17936932773109276        2.7315126050420167E-003  -5.2286839245962212E-003
  0.18119033613445409        2.7315126050420167E-003  -5.3108902725842290E-003
  0.18301134453781545        2.7315126050420167E-003  -5.3544445098693662E-003
  0.18483235294117678        2.7315126050420167E-003  -5.3544019875805737E-003
  0.18665336134453817        2.7315126050420167E-003  -5.3061286854027261E-003
  0.18847436974789952        2.7315126050420167E-003  -5.2035338289033962E-003
  0.19029537815126088        2.7315126050420167E-003  -5.0436637914420077E-003
  0.19211638655462224        2.7315126050420167E-003  -4.8247065765065602E-003
  0.19393739495798359        2.7315126050420167E-003  -4.5470260634328128E-003
  0.19575840336134498        2.7315126050420167E-003  -4.2132596667148184E-003
  0.19757941176470634        2.7315126050420167E-003  -3.8285822239921968E-003
  0.19940042016806767        2.7315126050420167E-003  -3.4008418323323852E-003
  0.20122142857142905        2.7315126050420167E-003  -2.9406002442483492E-003
  0.20304243697479038        2.7315126050420167E-003  -2.4609749295957826E-003
  0.20486344537815174        2.7315126050420167E-003  -1.9774597466432607E-003
  0.20668445378151312        2.7315126050420167E-003  -1.5071223002504953E-003
  0.20850546218487448        2.7315126050420167E-003  -1.0690513502086786E-003
  0.21032647058823584        2.7315126050420167E-003  -6.8097002635054071E-004
  0.21214747899159717        2.7315126050420167E-003  -3.6638461897831178E-004
  0.21396848739495852        2.7315126050420167E-003  -1.3472268577800813E-004
  0.21578949579831988        2.7315126050420167E-003  -1.8851724230773296E-005
  0.21670000000000000        2.7315126050420167E-003   0.0000000000000000     
   2.7876151404961289E-019   4.5525210084033617E-003   0.0000000000000000     
   9.1050420168067121E-004   4.5525210084033617E-003  -2.0787199552669216E-004
   2.7315126050420154E-003   4.5525210084033617E-003  -1.0789680340632663E-003
   4.5525210084033626E-003   4.5525210084033617E-003  -2.2440741808970148E-003
   6.3735294117647058E-003   4.5525210084033617E-003  -3.1819807382453768E-003
   8.1945378151260535E-003   4.5525210084033617E-003  -3.8738060896869909E-003
   1.0015546218487397E-002   4.5525210084033617E-003  -4.2928896077195997E-003
   1.1836554621848742E-002   4.5525210084033617E-003  -4.4941442171098312E-003
   1.3657563025210085E-002   4.5525210084033617E-003  -4.5323544358443803E-003
   1.5478571428571430E-002   4.5525210084033617E-003  -4.4624535851250074E-003
   1.7299579831932775E-002   4.5525210084033617E-003  -4.3257016899406718E-003
   1.9120588235294118E-002   4.5525210084033617E-003  -4.1531563929647674E-003
   2.0941596638655462E-002   4.5525210084033617E-003  -3.9663649315300475E-003
   2.2762605042016805E-002   4.5525210084033617E-003  -3.7796884228021421E-003
   2.4583613445378148E-002   4.5525210084033617E-003  -3.6019846801421400E-003