 title=u
 variables=x,y,u
 zone i=         171 ,j=         171
 
   0.0000000000000000        0.0000000000000000        0.0000000000000000     
   6.4112426035502961E-004   0.0000000000000000        0.0000000000000000     
   1.9233727810650889E-003   0.0000000000000000        0.0000000000000000     
   3.2056213017751479E-003   0.0000000000000000        0.0000000000000000     
   4.4878698224852069E-003   0.0000000000000000        0.0000000000000000     
   5.7701183431952659E-003   0.0000000000000000        0.0000000000000000     
   7.0523668639053249E-003   0.0000000000000000        0.0000000000000000     
   8.3346153846153848E-003   0.0000000000000000        0.0000000000000000     
   9.6168639053254446E-003   0.0000000000000000        0.0000000000000000     
   1.0899112426035504E-002   0.0000000000000000        0.0000000000000000     
   1.2181360946745564E-002   0.0000000000000000        0.0000000000000000     
   1.3463609467455624E-002   0.0000000000000000        0.0000000000000000     
   1.4745857988165684E-002   0.0000000000000000        0.0000000000000000     
   1.6028106508875744E-002   0.0000000000000000        0.0000000000000000     
   1.7310355029585802E-002   0.0000000000000000        0.0000000000000000     
   1.8592603550295860E-002   0.0000000000000000        0.0000000000000000     
   1.9874852071005918E-002   0.0000000000000000        0.0000000000000000     
   2.1157100591715976E-002   0.0000000000000000        0.0000000000000000     
   2.2439349112426035E-002   0.0000000000000000        0.0000000000000000     
   2.3721597633136093E-002   0.0000000000000000        0.0000000000000000     
   2.5003846153846151E-002   0.0000000000000000        0.0000000000000000     
   2.6286094674556209E-002   0.0000000000000000        0.0000000000000000     
   2.7568343195266267E-002   0.0000000000000000        0.0000000000000000     
   2.8850591715976325E-002   0.0000000000000000        0.0000000000000000     
   3.0132840236686383E-002   0.0000000000000000        0.0000000000000000     
   3.1415088757396445E-002   0.0000000000000000        0.0000000000000000     
   3.2697337278106503E-002   0.0000000000000000        0.0000000000000000     
   3.3979585798816561E-002   0.0000000000000000        0.0000000000000000     
   3.5261834319526619E-002   0.0000000000000000        0.0000000000000000     
   3.6544082840236677E-002   0.0000000000000000        0.0000000000000000     
   3.7826331360946736E-002   0.0000000000000000        0.0000000000000000     
   3.9108579881656794E-002   0.0000000000000000        0.0000000000000000     
   4.0390828402366852E-002   0.0000000000000000        0.0000000000000000     
   4.1673076923076910E-002   0.0000000000000000        0.0000000000000000     
   4.2955325443786968E-002   0.0000000000000000        0.0000000000000000     
   4.4237573964497026E-002   0.0000000000000000        0.0000000000000000     
   4.5519822485207084E-002   0.0000000000000000        0.0000000000000000     
   4.6802071005917142E-002   0.0000000000000000        0.0000000000000000     
   4.8084319526627201E-002   0.0000000000000000        0.0000000000000000     
   4.9366568047337259E-002   0.0000000000000000        0.0000000000000000     
   5.0648816568047317E-002   0.0000000000000000        0.0000000000000000     
   5.1931065088757375E-002   0.0000000000000000        0.0000000000000000     
   5.3213313609467433E-002   0.0000000000000000        0.0000000000000000     
   5.4495562130177491E-002   0.0000000000000000        0.0000000000000000     
   5.5777810650887549E-002   0.0000000000000000        0.0000000000000000     
   5.7060059171597607E-002   0.0000000000000000        0.0000000000000000     
   5.8342307692307666E-002   0.0000000000000000        0.0000000000000000     
   5.9624556213017724E-002   0.0000000000000000        0.0000000000000000     
   6.0906804733727782E-002   0.0000000000000000        0.0000000000000000     
   6.2189053254437840E-002   0.0000000000000000        0.0000000000000000     
   6.3471301775147898E-002   0.0000000000000000        0.0000000000000000     
   6.4753550295857956E-002   0.0000000000000000        0.0000000000000000     
   6.6035798816568014E-002   0.0000000000000000        0.0000000000000000     
   6.7318047337278072E-002   0.0000000000000000        0.0000000000000000     
   6.8600295857988131E-002   0.0000000000000000        0.0000000000000000     
   6.9882544378698189E-002   0.0000000000000000        0.0000000000000000     
   7.1164792899408247E-002   0.0000000000000000        0.0000000000000000     
   7.2447041420118305E-002   0.0000000000000000        0.0000000000000000     
   7.3729289940828363E-002   0.0000000000000000        0.0000000000000000     
   7.5011538461538421E-002   0.0000000000000000        0.0000000000000000     
   7.6293786982248479E-002   0.0000000000000000        0.0000000000000000     
   7.7576035502958537E-002   0.0000000000000000        0.0000000000000000     
   7.8858284023668596E-002   0.0000000000000000        0.0000000000000000     
   8.0140532544378654E-002   0.0000000000000000        0.0000000000000000     
   8.1422781065088712E-002   0.0000000000000000        0.0000000000000000     
   8.2705029585798770E-002   0.0000000000000000        0.0000000000000000     
   8.3987278106508828E-002   0.0000000000000000        0.0000000000000000     
   8.5269526627218886E-002   0.0000000000000000        0.0000000000000000     
   8.6551775147928944E-002   0.0000000000000000        0.0000000000000000     
   8.7834023668639002E-002   0.0000000000000000        0.0000000000000000     
   8.9116272189349061E-002   0.0000000000000000        0.0000000000000000     
   9.0398520710059119E-002   0.0000000000000000        0.0000000000000000     
   9.1680769230769177E-002   0.0000000000000000        0.0000000000000000     
   9.2963017751479235E-002   0.0000000000000000        0.0000000000000000     
   9.4245266272189293E-002   0.0000000000000000        0.0000000000000000     
   9.5527514792899351E-002   0.0000000000000000        0.0000000000000000     
   9.6809763313609409E-002   0.0000000000000000        0.0000000000000000     
   9.8092011834319467E-002   0.0000000000000000        0.0000000000000000     
   9.9374260355029526E-002   0.0000000000000000        0.0000000000000000     
  0.10065650887573958        0.0000000000000000        0.0000000000000000     
  0.10193875739644964        0.0000000000000000        0.0000000000000000     
  0.10322100591715970        0.0000000000000000        0.0000000000000000     
  0.10450325443786976        0.0000000000000000        0.0000000000000000     
  0.10578550295857982        0.0000000000000000        0.0000000000000000     
  0.10706775147928987        0.0000000000000000        0.0000000000000000     
  0.10834999999999993        0.0000000000000000        0.0000000000000000     
  0.10963224852070999        0.0000000000000000        0.0000000000000000     
  0.11091449704142005        0.0000000000000000        0.0000000000000000     
  0.11219674556213011        0.0000000000000000        0.0000000000000000     
  0.11347899408284016        0.0000000000000000        0.0000000000000000     
  0.11476124260355022        0.0000000000000000        0.0000000000000000     
  0.11604349112426028        0.0000000000000000        0.0000000000000000     
  0.11732573964497034        0.0000000000000000        0.0000000000000000     
  0.11860798816568040        0.0000000000000000        0.0000000000000000     
  0.11989023668639046        0.0000000000000000        0.0000000000000000     
  0.12117248520710051        0.0000000000000000        0.0000000000000000     
  0.12245473372781057        0.0000000000000000        0.0000000000000000     
  0.12373698224852063        0.0000000000000000        0.0000000000000000     
  0.12501923076923069        0.0000000000000000        0.0000000000000000     
  0.12630147928994076        0.0000000000000000        0.0000000000000000     
  0.12758372781065083        0.0000000000000000        0.0000000000000000     
  0.12886597633136090        0.0000000000000000        0.0000000000000000     
  0.13014822485207098        0.0000000000000000        0.0000000000000000     
  0.13143047337278105        0.0000000000000000        0.0000000000000000     
  0.13271272189349112        0.0000000000000000        0.0000000000000000     
  0.13399497041420119        0.0000000000000000        0.0000000000000000     
  0.13527721893491126        0.0000000000000000        0.0000000000000000     
  0.13655946745562134        0.0000000000000000        0.0000000000000000     
  0.13784171597633141        0.0000000000000000        0.0000000000000000     
  0.13912396449704148        0.0000000000000000        0.0000000000000000     
  0.14040621301775155        0.0000000000000000        0.0000000000000000     
  0.14168846153846162        0.0000000000000000        0.0000000000000000     
  0.14297071005917170        0.0000000000000000        0.0000000000000000     
  0.14425295857988177        0.0000000000000000        0.0000000000000000     
  0.14553520710059184        0.0000000000000000        0.0000000000000000     
  0.14681745562130191        0.0000000000000000        0.0000000000000000     
  0.14809970414201198        0.0000000000000000        0.0000000000000000     
  0.14938195266272206        0.0000000000000000        0.0000000000000000     
  0.15066420118343213        0.0000000000000000        0.0000000000000000     
  0.15194644970414220        0.0000000000000000        0.0000000000000000     
  0.15322869822485227        0.0000000000000000        0.0000000000000000     
  0.15451094674556234        0.0000000000000000        0.0000000000000000     
  0.15579319526627242        0.0000000000000000        0.0000000000000000     
  0.15707544378698249        0.0000000000000000        0.0000000000000000     
  0.15835769230769256        0.0000000000000000        0.0000000000000000     
  0.15963994082840263        0.0000000000000000        0.0000000000000000     
  0.16092218934911270        0.0000000000000000        0.0000000000000000     
  0.16220443786982278        0.0000000000000000        0.0000000000000000     
  0.16348668639053285        0.0000000000000000        0.0000000000000000     
  0.16476893491124292        0.0000000000000000        0.0000000000000000     
  0.16605118343195299        0.0000000000000000        0.0000000000000000     
  0.16733343195266306        0.0000000000000000        0.0000000000000000     
  0.16861568047337314        0.0000000000000000        0.0000000000000000     
  0.16989792899408321        0.0000000000000000        0.0000000000000000     
  0.17118017751479328        0.0000000000000000        0.0000000000000000     
  0.17246242603550335        0.0000000000000000        0.0000000000000000     
  0.17374467455621342        0.0000000000000000        0.0000000000000000     
  0.17502692307692350        0.0000000000000000        0.0000000000000000     
  0.17630917159763357        0.0000000000000000        0.0000000000000000     
  0.17759142011834364        0.0000000000000000        0.0000000000000000     
  0.17887366863905371        0.0000000000000000        0.0000000000000000     
  0.18015591715976378        0.0000000000000000        0.0000000000000000     
  0.18143816568047386        0.0000000000000000        0.0000000000000000     
  0.18272041420118393        0.0000000000000000        0.0000000000000000     
  0.18400266272189400        0.0000000000000000        0.0000000000000000     
  0.18528491124260407        0.0000000000000000        0.0000000000000000     
  0.18656715976331414        0.0000000000000000        0.0000000000000000     
  0.18784940828402422        0.0000000000000000        0.0000000000000000     
  0.18913165680473429        0.0000000000000000        0.0000000000000000     
  0.19041390532544436        0.0000000000000000        0.0000000000000000     
  0.19169615384615443        0.0000000000000000        0.0000000000000000     
  0.19297840236686450        0.0000000000000000        0.0000000000000000     
  0.19426065088757458        0.0000000000000000        0.0000000000000000     
  0.19554289940828465        0.0000000000000000        0.0000000000000000     
  0.19682514792899472        0.0000000000000000        0.0000000000000000     
  0.19810739644970479        0.0000000000000000        0.0000000000000000     
  0.19938964497041486        0.0000000000000000        0.0000000000000000     
  0.20067189349112494        0.0000000000000000        0.0000000000000000     
  0.20195414201183501        0.0000000000000000        0.0000000000000000     
  0.20323639053254508        0.0000000000000000        0.0000000000000000     
  0.20451863905325515        0.0000000000000000        0.0000000000000000     
  0.20580088757396522        0.0000000000000000        0.0000000000000000     
  0.20708313609467530        0.0000000000000000        0.0000000000000000     
  0.20836538461538537        0.0000000000000000        0.0000000000000000     
  0.20964763313609544        0.0000000000000000        0.0000000000000000     
  0.21092988165680551        0.0000000000000000        0.0000000000000000     
  0.21221213017751558        0.0000000000000000        0.0000000000000000     
  0.21349437869822566        0.0000000000000000        0.0000000000000000     
  0.21477662721893573        0.0000000000000000        0.0000000000000000     
  0.21605887573964580        0.0000000000000000        0.0000000000000000     
  0.21670000000000000        0.0000000000000000        0.0000000000000000     
   3.9257538664975065E-020   6.4112426035502961E-004   0.0000000000000000     
   6.4112426035502971E-004   6.4112426035502961E-004  -5.8849547842213250E-005
   1.9233727810650889E-003   6.4112426035502961E-004  -2.7208458359405927E-004
   3.2056213017751479E-003   6.4112426035502961E-004  -5.7658710096214938E-004
   4.4878698224852069E-003   6.4112426035502961E-004  -8.4245150751432552E-004
   5.7701183431952668E-003   6.4112426035502961E-004  -1.0361434259400551E-003
   7.0523668639053249E-003   6.4112426035502961E-004  -1.1598579242319540E-003
   8.3346153846153848E-003   6.4112426035502961E-004  -1.2244254420877639E-003
   9.6168639053254446E-003   6.4112426035502971E-004  -1.2432898832399268E-003
   1.0899112426035504E-002   6.4112426035502961E-004  -1.2295263017621126E-003
   1.2181360946745564E-002   6.4112426035502961E-004  -1.1932704967820751E-003
   1.3463609467455624E-002   6.4112426035502961E-004  -1.1426316490456242E-003
   1.4745857988165684E-002   6.4112426035502961E-004  -1.0838752047006594E-003
   1.6028106508875744E-002   6.4112426035502961E-004  -1.0215666782756746E-003
   1.7310355029585802E-002   6.4112426035502961E-004  -9.5893745322474645E-004
   1.8592603550295860E-002   6.4112426035502961E-004  -8.9818681274832300E-004
   1.9874852071005922E-002   6.4112426035502961E-004  -8.4072319340257340E-004
   2.1157100591715976E-002   6.4112426035502961E-004  -7.8736426064082807E-004
   2.2439349112426038E-002   6.4112426035502961E-004  -7.3849925556931397E-004
   2.3721597633136093E-002   6.4112426035502961E-004  -6.9421712961224716E-004
   2.5003846153846151E-002   6.4112426035502961E-004  -6.5440531585080162E-004
   2.6286094674556209E-002   6.4112426035502961E-004  -6.1882398102796666E-004
   2.7568343195266267E-002   6.4112426035502961E-004  -5.8716032910633082E-004
   2.8850591715976325E-002   6.4112426035502961E-004  -5.5906712150346756E-004
   3.0132840236686383E-002   6.4112426035502961E-004  -5.3418904017355992E-004
   3.1415088757396452E-002   6.4112426035502961E-004  -5.1217992603228729E-004
   3.2697337278106503E-002   6.4112426035502971E-004  -4.9271334458070000E-004
   3.3979585798816561E-002   6.4112426035502961E-004  -4.7548840349444731E-004
   3.5261834319526626E-002   6.4112426035502961E-004  -4.6023229373620396E-004
   3.6544082840236677E-002   6.4112426035502961E-004  -4.4670065173723017E-004
   3.7826331360946736E-002   6.4112426035502961E-004  -4.3467654197000099E-004
   3.9108579881656794E-002   6.4112426035502961E-004  -4.2396862798058468E-004
   4.0390828402366852E-002   6.4112426035502961E-004  -4.1440892503315983E-004
   4.1673076923076917E-002   6.4112426035502961E-004  -4.0585039806379961E-004
   4.2955325443786968E-002   6.4112426035502961E-004  -3.9816457505734615E-004
   4.4237573964497026E-002   6.4112426035502961E-004  -3.9123927955237223E-004
   4.5519822485207084E-002   6.4112426035502961E-004  -3.8497654009192364E-004
   4.6802071005917142E-002   6.4112426035502961E-004  -3.7929070352545925E-004
   4.8084319526627201E-002   6.4112426035502961E-004  -3.7410675890973277E-004
   4.9366568047337259E-002   6.4112426035502961E-004  -3.6935886623616025E-004
   5.0648816568047324E-002   6.4112426035502961E-004  -3.6498907687117931E-004
   5.1931065088757375E-002   6.4112426035502961E-004  -3.6094622892896575E-004
   5.3213313609467426E-002   6.4112426035502961E-004  -3.5718499931897612E-004
   5.4495562130177491E-002   6.4112426035502961E-004  -3.5366509428377412E-004
   5.5777810650887549E-002   6.4112426035502961E-004  -3.5035056112932744E-004
   5.7060059171597607E-002   6.4112426035502961E-004  -3.4720920532002277E-004
   5.8342307692307666E-002   6.4112426035502961E-004  -3.4421209858068028E-004
   5.9624556213017724E-002   6.4112426035502961E-004  -3.4133316541157390E-004
   6.0906804733727782E-002   6.4112426035502961E-004  -3.3854883691148780E-004
   6.2189053254437840E-002   6.4112426035502961E-004  -3.3583776233820229E-004
   6.3471301775147898E-002   6.4112426035502961E-004  -3.3318057006557285E-004
   6.4753550295857956E-002   6.4112426035502961E-004  -3.3055967086693586E-004
   6.6035798816568000E-002   6.4112426035502961E-004  -3.2795909732288224E-004
   6.7318047337278072E-002   6.4112426035502961E-004  -3.2536437416371880E-004
   6.8600295857988131E-002   6.4112426035502961E-004  -3.2276241497983531E-004
   6.9882544378698189E-002   6.4112426035502961E-004  -3.2014144141368937E-004
   7.1164792899408247E-002   6.4112426035502961E-004  -3.1749092148227056E-004
   7.2447041420118305E-002   6.4112426035502961E-004  -3.1480152402743296E-004
   7.3729289940828349E-002   6.4112426035502961E-004  -3.1206508678014355E-004
   7.5011538461538421E-002   6.4112426035502950E-004  -3.0927459570606006E-004
   7.6293786982248465E-002   6.4112426035502961E-004  -3.0642417364900546E-004
   7.7576035502958537E-002   6.4112426035502961E-004  -3.0350907642440357E-004
   7.8858284023668596E-002   6.4112426035502961E-004  -3.0052569470520038E-004
   8.0140532544378654E-002   6.4112426035502961E-004  -2.9747156023782266E-004
   8.1422781065088698E-002   6.4112426035502961E-004  -2.9434535498306795E-004
   8.2705029585798770E-002   6.4112426035502961E-004  -2.9114692190593044E-004
   8.3987278106508828E-002   6.4112426035502961E-004  -2.8787727631828013E-004
   8.5269526627218886E-002   6.4112426035502961E-004  -2.8453861660001603E-004
   8.6551775147928930E-002   6.4112426035502961E-004  -2.8113433340795472E-004
   8.7834023668638989E-002   6.4112426035502961E-004  -2.7766901642958862E-004
   8.9116272189349061E-002   6.4112426035502961E-004  -2.7414845789031252E-004
   9.0398520710059133E-002   6.4112426035502961E-004  -2.7057965208371245E-004
   9.1680769230769177E-002   6.4112426035502961E-004  -2.6697079035915676E-004
   9.2963017751479249E-002   6.4112426035502961E-004  -2.6333125095825911E-004
   9.4245266272189293E-002   6.4112426035502961E-004  -2.5967158340264613E-004
   9.5527514792899337E-002   6.4112426035502961E-004  -2.5600348703912933E-004
   9.6809763313609395E-002   6.4112426035502961E-004  -2.5233978363884102E-004
   9.8092011834319467E-002   6.4112426035502961E-004  -2.4869438393221093E-004
   9.9374260355029512E-002   6.4112426035502961E-004  -2.4508224824183148E-004
  0.10065650887573958        6.4112426035502961E-004  -2.4151934137819228E-004
  0.10193875739644964        6.4112426035502961E-004  -2.3802258222470847E-004
  0.10322100591715970        6.4112426035502961E-004  -2.3460978862511016E-004
  0.10450325443786976        6.4112426035502961E-004  -2.3129961836941987E-004
  0.10578550295857983        6.4112426035502961E-004  -2.2811150754089993E-004
  0.10706775147928987        6.4112426035502961E-004  -2.2506560795745986E-004
  0.10834999999999993        6.4112426035502961E-004  -2.2218272659034892E-004
  0.10963224852070999        6.4112426035502961E-004  -2.1948427151562258E-004
  0.11091449704142005        6.4112426035502961E-004  -2.1699221202023633E-004
  0.11219674556213011        6.4112426035502961E-004  -2.1472907349680940E-004
  0.11347899408284016        6.4112426035502961E-004  -2.1271797326890597E-004
  0.11476124260355022        6.4112426035502961E-004  -2.1098257229060891E-004
  0.11604349112426028        6.4112426035502961E-004  -2.0954741652714636E-004
  0.11732573964497034        6.4112426035502961E-004  -2.0843590206183623E-004
  0.11860798816568040        6.4112426035502961E-004  -2.0767495940390114E-004
  0.11989023668639044        6.4112426035502961E-004  -2.0729334259475538E-004
  0.12117248520710051        6.4112426035502961E-004  -2.0732061353910457E-004
  0.12245473372781057        6.4112426035502961E-004  -2.0778549633747916E-004
  0.12373698224852063        6.4112426035502961E-004  -2.0871687171311845E-004
  0.12501923076923069        6.4112426035502961E-004  -2.1014430381054248E-004
  0.12630147928994076        6.4112426035502961E-004  -2.1209828797799163E-004
  0.12758372781065086        6.4112426035502961E-004  -2.1461042738096331E-004
  0.12886597633136088        6.4112426035502961E-004  -2.1771355476201792E-004
  0.13014822485207100        6.4112426035502961E-004  -2.2144182049865202E-004
  0.13143047337278108        6.4112426035502961E-004  -2.2583076122410106E-004
  0.13271272189349112        6.4112426035502961E-004  -2.3091735224370068E-004
  0.13399497041420119        6.4112426035502961E-004  -2.3674004191018085E-004
  0.13527721893491126        6.4112426035502961E-004  -2.4333876331788490E-004
  0.13655946745562134        6.4112426035502971E-004  -2.5075491672585772E-004
  0.13784171597633141        6.4112426035502961E-004  -2.5903131477821327E-004
  0.13912396449704148        6.4112426035502971E-004  -2.6821208140725787E-004
  0.14040621301775155        6.4112426035502961E-004  -2.7834249438732963E-004
  0.14168846153846165        6.4112426035502961E-004  -2.8946876065840055E-004
  0.14297071005917167        6.4112426035502961E-004  -3.0163771278333924E-004
  0.14425295857988177        6.4112426035502961E-004  -3.1489641439137533E-004
  0.14553520710059184        6.4112426035502961E-004  -3.2929166203710136E-004
  0.14681745562130194        6.4112426035502961E-004  -3.4486937080771638E-004
  0.14809970414201196        6.4112426035502961E-004  -3.6167383119408943E-004
  0.14938195266272206        6.4112426035502961E-004  -3.7974682534899643E-004
  0.15066420118343213        6.4112426035502971E-004  -3.9912659180622059E-004
  0.15194644970414220        6.4112426035502961E-004  -4.1984662936313060E-004
  0.15322869822485227        6.4112426035502971E-004  -4.4193433296725370E-004
  0.15451094674556234        6.4112426035502971E-004  -4.6540945731095876E-004
  0.15579319526627244        6.4112426035502961E-004  -4.9028240744607783E-004
  0.15707544378698252        6.4112426035502961E-004  -5.1655236016008371E-004
  0.15835769230769259        6.4112426035502950E-004  -5.4420522517950273E-004
  0.15963994082840266        6.4112426035502971E-004  -5.7321146134934123E-004
  0.16092218934911270        6.4112426035502950E-004  -6.0352377000040341E-004
  0.16220443786982280        6.4112426035502961E-004  -6.3507469551254709E-004
  0.16348668639053285        6.4112426035502950E-004  -6.6777417145326564E-004
  0.16476893491124292        6.4112426035502961E-004  -7.0150705964795940E-004
  0.16605118343195299        6.4112426035502961E-004  -7.3613073863383117E-004
  0.16733343195266306        6.4112426035502961E-004  -7.7147280681131929E-004
  0.16861568047337314        6.4112426035502961E-004  -8.0732897393844417E-004
  0.16989792899408318        6.4112426035502961E-004  -8.4346122150752217E-004
  0.17118017751479328        6.4112426035502961E-004  -8.7959631745665359E-004
  0.17246242603550338        6.4112426035502961E-004  -9.1542477241546511E-004
  0.17374467455621342        6.4112426035502961E-004  -9.5060032221182277E-004
  0.17502692307692350        6.4112426035502961E-004  -9.8474001301818094E-004
  0.17630917159763354        6.4112426035502961E-004  -1.0174249508969413E-003
  0.17759142011834364        6.4112426035502961E-004  -1.0482017505855578E-003
  0.17887366863905371        6.4112426035502961E-004  -1.0765846745449292E-003
  0.18015591715976378        6.4112426035502961E-004  -1.1020584749645349E-003
  0.18143816568047388        6.4112426035502961E-004  -1.1240821732111349E-003
  0.18272041420118390        6.4112426035502961E-004  -1.1420937169698470E-003
  0.18400266272189400        6.4112426035502961E-004  -1.1555141166046251E-003
  0.18528491124260404        6.4112426035502961E-004  -1.1637612876626846E-003
  0.18656715976331414        6.4112426035502961E-004  -1.1663273934413442E-003
  0.18784940828402422        6.4112426035502961E-004  -1.1628192191241100E-003
  0.18913165680473429        6.4112426035502961E-004  -1.1526784338518987E-003
  0.19041390532544436        6.4112426035502961E-004  -1.1354638564271392E-003
  0.19169615384615443        6.4112426035502961E-004  -1.1108374937850646E-003
  0.19297840236686450        6.4112426035502961E-004  -1.0785983128466573E-003
  0.19426065088757458        6.4112426035502961E-004  -1.0387008674038029E-003
  0.19554289940828468        6.4112426035502961E-004  -9.9126858625518503E-004
  0.19682514792899472        6.4112426035502961E-004  -9.3660648340216431E-004
  0.19810739644970479        6.4112426035502961E-004  -8.7521100893876843E-004
  0.19938964497041486        6.4112426035502961E-004  -8.0777528050028668E-004
  0.20067189349112496        6.4112426035502961E-004  -7.3518839956413515E-004
  0.20195414201183498        6.4112426035502961E-004  -6.5852798795047675E-004
  0.20323639053254505        6.4112426035502961E-004  -5.7904568965082379E-004
  0.20451863905325512        6.4112426035502961E-004  -4.9814619434524908E-004
  0.20580088757396520        6.4112426035502961E-004  -4.1736134703514421E-004
  0.20708313609467530        6.4112426035502961E-004  -3.3832175843074696E-004
  0.20836538461538537        6.4112426035502961E-004  -2.6272812820283056E-004
  0.20964763313609544        6.4112426035502961E-004  -1.9232576283779648E-004
  0.21092988165680551        6.4112426035502961E-004  -1.2888721675014748E-004
  0.21221213017751556        6.4112426035502961E-004  -7.4142760253802575E-005
  0.21349437869822566        6.4112426035502961E-004  -2.9731994120782930E-005
  0.21477662721893570        6.4112426035502961E-004   5.0867704889503003E-007
  0.21605887573964580        6.4112426035502961E-004   5.6630066852213647E-006
  0.21669999999999998        6.4112426035502961E-004   0.0000000000000000     
   1.1777261599492521E-019   1.9233727810650889E-003   0.0000000000000000     
   6.4112426035502971E-004   1.9233727810650889E-003  -1.1928775645359293E-004
   1.9233727810650891E-003   1.9233727810650889E-003  -5.3002998083606482E-004
   3.2056213017751484E-003   1.9233727810650887E-003  -1.1266440795630905E-003
   4.4878698224852069E-003   1.9233727810650889E-003  -1.6929318962117278E-003
   5.7701183431952659E-003   1.9233727810650887E-003  -2.1516600790216743E-003
   7.0523668639053249E-003   1.9233727810650889E-003  -2.4853624961070010E-003
   8.3346153846153848E-003   1.9233727810650889E-003  -2.6997260333610522E-003
   9.6168639053254446E-003   1.9233727810650889E-003  -2.8125233436800809E-003
   1.0899112426035503E-002   1.9233727810650889E-003  -2.8450527713567452E-003
   1.2181360946745564E-002   1.9233727810650891E-003  -2.8189061825811758E-003
   1.3463609467455626E-002   1.9233727810650889E-003  -2.7508507071030397E-003
   1.4745857988165684E-002   1.9233727810650889E-003  -2.6551235765591920E-003
   1.6028106508875747E-002   1.9233727810650889E-003  -2.5428309871802228E-003
   1.7310355029585802E-002   1.9233727810650887E-003  -2.4223556873721581E-003
   1.8592603550295860E-002   1.9233727810650889E-003  -2.2998420898638306E-003
   1.9874852071005918E-002   1.9233727810650889E-003  -2.1796187615368413E-003
   2.1157100591715980E-002   1.9233727810650889E-003  -2.0645818156596334E-003
   2.2439349112426035E-002   1.9233727810650889E-003  -1.9565296493376438E-003
   2.3721597633136096E-002   1.9233727810650887E-003  -1.8564425879103979E-003
   2.5003846153846151E-002   1.9233727810650889E-003  -1.7647095482331409E-003
   2.6286094674556209E-002   1.9233727810650887E-003  -1.6813070037698353E-003
   2.7568343195266267E-002   1.9233727810650889E-003  -1.6059367432785898E-003
   2.8850591715976325E-002   1.9233727810650889E-003  -1.5381292667810060E-003
   3.0132840236686380E-002   1.9233727810650889E-003  -1.4773193749816778E-003
   3.1415088757396445E-002   1.9233727810650889E-003  -1.4228998427529334E-003
   3.2697337278106503E-002   1.9233727810650889E-003  -1.3742582337970242E-003
   3.3979585798816561E-002   1.9233727810650889E-003  -1.3308010457821549E-003
   3.5261834319526619E-002   1.9233727810650889E-003  -1.2919685554245300E-003
   3.6544082840236684E-002   1.9233727810650889E-003  -1.2572430051295850E-003
   3.7826331360946742E-002   1.9233727810650887E-003  -1.2261521551398483E-003
   3.9108579881656794E-002   1.9233727810650889E-003  -1.1982697190117228E-003
   4.0390828402366852E-002   1.9233727810650889E-003  -1.1732137966659359E-003
   4.1673076923076917E-002   1.9233727810650889E-003  -1.1506441056426259E-003
   4.2955325443786968E-002   1.9233727810650889E-003  -1.1302585720239519E-003
   4.4237573964497026E-002   1.9233727810650889E-003  -1.1117896642910345E-003