 title=Umag
 variables=x,y,Umag
 zone i=         171 ,j=         171
 
   0.0000000000000000        0.0000000000000000        0.0000000000000000     
   6.4112426035502961E-004   0.0000000000000000        0.0000000000000000     
   1.9233727810650889E-003   0.0000000000000000        0.0000000000000000     
   3.2056213017751479E-003   0.0000000000000000        0.0000000000000000     
   4.4878698224852069E-003   0.0000000000000000        0.0000000000000000     
   5.7701183431952659E-003   0.0000000000000000        0.0000000000000000     
   7.0523668639053249E-003   0.0000000000000000        0.0000000000000000     
   8.3346153846153848E-003   0.0000000000000000        0.0000000000000000     
   9.6168639053254446E-003   0.0000000000000000        0.0000000000000000     
   1.0899112426035504E-002   0.0000000000000000        0.0000000000000000     
   1.2181360946745564E-002   0.0000000000000000        0.0000000000000000     
   1.3463609467455624E-002   0.0000000000000000        0.0000000000000000     
   1.4745857988165684E-002   0.0000000000000000        0.0000000000000000     
   1.6028106508875744E-002   0.0000000000000000        0.0000000000000000     
   1.7310355029585802E-002   0.0000000000000000        0.0000000000000000     
   1.8592603550295860E-002   0.0000000000000000        0.0000000000000000     
   1.9874852071005918E-002   0.0000000000000000        0.0000000000000000     
   2.1157100591715976E-002   0.0000000000000000        0.0000000000000000     
   2.2439349112426035E-002   0.0000000000000000        0.0000000000000000     
   2.3721597633136093E-002   0.0000000000000000        0.0000000000000000     
   2.5003846153846151E-002   0.0000000000000000        0.0000000000000000     
   2.6286094674556209E-002   0.0000000000000000        0.0000000000000000     
   2.7568343195266267E-002   0.0000000000000000        0.0000000000000000     
   2.8850591715976325E-002   0.0000000000000000        0.0000000000000000     
   3.0132840236686383E-002   0.0000000000000000        0.0000000000000000     
   3.1415088757396445E-002   0.0000000000000000        0.0000000000000000     
   3.2697337278106503E-002   0.0000000000000000        0.0000000000000000     
   3.3979585798816561E-002   0.0000000000000000        0.0000000000000000     
   3.5261834319526619E-002   0.0000000000000000        0.0000000000000000     
   3.6544082840236677E-002   0.0000000000000000        0.0000000000000000     
   3.7826331360946736E-002   0.0000000000000000        0.0000000000000000     
   3.9108579881656794E-002   0.0000000000000000        0.0000000000000000     
   4.0390828402366852E-002   0.0000000000000000        0.0000000000000000     
   4.1673076923076910E-002   0.0000000000000000        0.0000000000000000     
   4.2955325443786968E-002   0.0000000000000000        0.0000000000000000     
   4.4237573964497026E-002   0.0000000000000000        0.0000000000000000     
   4.5519822485207084E-002   0.0000000000000000        0.0000000000000000     
   4.6802071005917142E-002   0.0000000000000000        0.0000000000000000     
   4.8084319526627201E-002   0.0000000000000000        0.0000000000000000     
   4.9366568047337259E-002   0.0000000000000000        0.0000000000000000     
   5.0648816568047317E-002   0.0000000000000000        0.0000000000000000     
   5.1931065088757375E-002   0.0000000000000000        0.0000000000000000     
   5.3213313609467433E-002   0.0000000000000000        0.0000000000000000     
   5.4495562130177491E-002   0.0000000000000000        0.0000000000000000     
   5.5777810650887549E-002   0.0000000000000000        0.0000000000000000     
   5.7060059171597607E-002   0.0000000000000000        0.0000000000000000     
   5.8342307692307666E-002   0.0000000000000000        0.0000000000000000     
   5.9624556213017724E-002   0.0000000000000000        0.0000000000000000     
   6.0906804733727782E-002   0.0000000000000000        0.0000000000000000     
   6.2189053254437840E-002   0.0000000000000000        0.0000000000000000     
   6.3471301775147898E-002   0.0000000000000000        0.0000000000000000     
   6.4753550295857956E-002   0.0000000000000000        0.0000000000000000     
   6.6035798816568014E-002   0.0000000000000000        0.0000000000000000     
   6.7318047337278072E-002   0.0000000000000000        0.0000000000000000     
   6.8600295857988131E-002   0.0000000000000000        0.0000000000000000     
   6.9882544378698189E-002   0.0000000000000000        0.0000000000000000     
   7.1164792899408247E-002   0.0000000000000000        0.0000000000000000     
   7.2447041420118305E-002   0.0000000000000000        0.0000000000000000     
   7.3729289940828363E-002   0.0000000000000000        0.0000000000000000     
   7.5011538461538421E-002   0.0000000000000000        0.0000000000000000     
   7.6293786982248479E-002   0.0000000000000000        0.0000000000000000     
   7.7576035502958537E-002   0.0000000000000000        0.0000000000000000     
   7.8858284023668596E-002   0.0000000000000000        0.0000000000000000     
   8.0140532544378654E-002   0.0000000000000000        0.0000000000000000     
   8.1422781065088712E-002   0.0000000000000000        0.0000000000000000     
   8.2705029585798770E-002   0.0000000000000000        0.0000000000000000     
   8.3987278106508828E-002   0.0000000000000000        0.0000000000000000     
   8.5269526627218886E-002   0.0000000000000000        0.0000000000000000     
   8.6551775147928944E-002   0.0000000000000000        0.0000000000000000     
   8.7834023668639002E-002   0.0000000000000000        0.0000000000000000     
   8.9116272189349061E-002   0.0000000000000000        0.0000000000000000     
   9.0398520710059119E-002   0.0000000000000000        0.0000000000000000     
   9.1680769230769177E-002   0.0000000000000000        0.0000000000000000     
   9.2963017751479235E-002   0.0000000000000000        0.0000000000000000     
   9.4245266272189293E-002   0.0000000000000000        0.0000000000000000     
   9.5527514792899351E-002   0.0000000000000000        0.0000000000000000     
   9.6809763313609409E-002   0.0000000000000000        0.0000000000000000     
   9.8092011834319467E-002   0.0000000000000000        0.0000000000000000     
   9.9374260355029526E-002   0.0000000000000000        0.0000000000000000     
  0.10065650887573958        0.0000000000000000        0.0000000000000000     
  0.10193875739644964        0.0000000000000000        0.0000000000000000     
  0.10322100591715970        0.0000000000000000        0.0000000000000000     
  0.10450325443786976        0.0000000000000000        0.0000000000000000     
  0.10578550295857982        0.0000000000000000        0.0000000000000000     
  0.10706775147928987        0.0000000000000000        0.0000000000000000     
  0.10834999999999993        0.0000000000000000        0.0000000000000000     
  0.10963224852070999        0.0000000000000000        0.0000000000000000     
  0.11091449704142005        0.0000000000000000        0.0000000000000000     
  0.11219674556213011        0.0000000000000000        0.0000000000000000     
  0.11347899408284016        0.0000000000000000        0.0000000000000000     
  0.11476124260355022        0.0000000000000000        0.0000000000000000     
  0.11604349112426028        0.0000000000000000        0.0000000000000000     
  0.11732573964497034        0.0000000000000000        0.0000000000000000     
  0.11860798816568040        0.0000000000000000        0.0000000000000000     
  0.11989023668639046        0.0000000000000000        0.0000000000000000     
  0.12117248520710051        0.0000000000000000        0.0000000000000000     
  0.12245473372781057        0.0000000000000000        0.0000000000000000     
  0.12373698224852063        0.0000000000000000        0.0000000000000000     
  0.12501923076923069        0.0000000000000000        0.0000000000000000     
  0.12630147928994076        0.0000000000000000        0.0000000000000000     
  0.12758372781065083        0.0000000000000000        0.0000000000000000     
  0.12886597633136090        0.0000000000000000        0.0000000000000000     
  0.13014822485207098        0.0000000000000000        0.0000000000000000     
  0.13143047337278105        0.0000000000000000        0.0000000000000000     
  0.13271272189349112        0.0000000000000000        0.0000000000000000     
  0.13399497041420119        0.0000000000000000        0.0000000000000000     
  0.13527721893491126        0.0000000000000000        0.0000000000000000     
  0.13655946745562134        0.0000000000000000        0.0000000000000000     
  0.13784171597633141        0.0000000000000000        0.0000000000000000     
  0.13912396449704148        0.0000000000000000        0.0000000000000000     
  0.14040621301775155        0.0000000000000000        0.0000000000000000     
  0.14168846153846162        0.0000000000000000        0.0000000000000000     
  0.14297071005917170        0.0000000000000000        0.0000000000000000     
  0.14425295857988177        0.0000000000000000        0.0000000000000000     
  0.14553520710059184        0.0000000000000000        0.0000000000000000     
  0.14681745562130191        0.0000000000000000        0.0000000000000000     
  0.14809970414201198        0.0000000000000000        0.0000000000000000     
  0.14938195266272206        0.0000000000000000        0.0000000000000000     
  0.15066420118343213        0.0000000000000000        0.0000000000000000     
  0.15194644970414220        0.0000000000000000        0.0000000000000000     
  0.15322869822485227        0.0000000000000000        0.0000000000000000     
  0.15451094674556234        0.0000000000000000        0.0000000000000000     
  0.15579319526627242        0.0000000000000000        0.0000000000000000     
  0.15707544378698249        0.0000000000000000        0.0000000000000000     
  0.15835769230769256        0.0000000000000000        0.0000000000000000     
  0.15963994082840263        0.0000000000000000        0.0000000000000000     
  0.16092218934911270        0.0000000000000000        0.0000000000000000     
  0.16220443786982278        0.0000000000000000        0.0000000000000000     
  0.16348668639053285        0.0000000000000000        0.0000000000000000     
  0.16476893491124292        0.0000000000000000        0.0000000000000000     
  0.16605118343195299        0.0000000000000000        0.0000000000000000     
  0.16733343195266306        0.0000000000000000        0.0000000000000000     
  0.16861568047337314        0.0000000000000000        0.0000000000000000     
  0.16989792899408321        0.0000000000000000        0.0000000000000000     
  0.17118017751479328        0.0000000000000000        0.0000000000000000     
  0.17246242603550335        0.0000000000000000        0.0000000000000000     
  0.17374467455621342        0.0000000000000000        0.0000000000000000     
  0.17502692307692350        0.0000000000000000        0.0000000000000000     
  0.17630917159763357        0.0000000000000000        0.0000000000000000     
  0.17759142011834364        0.0000000000000000        0.0000000000000000     
  0.17887366863905371        0.0000000000000000        0.0000000000000000     
  0.18015591715976378        0.0000000000000000        0.0000000000000000     
  0.18143816568047386        0.0000000000000000        0.0000000000000000     
  0.18272041420118393        0.0000000000000000        0.0000000000000000     
  0.18400266272189400        0.0000000000000000        0.0000000000000000     
  0.18528491124260407        0.0000000000000000        0.0000000000000000     
  0.18656715976331414        0.0000000000000000        0.0000000000000000     
  0.18784940828402422        0.0000000000000000        0.0000000000000000     
  0.18913165680473429        0.0000000000000000        0.0000000000000000     
  0.19041390532544436        0.0000000000000000        0.0000000000000000     
  0.19169615384615443        0.0000000000000000        0.0000000000000000     
  0.19297840236686450        0.0000000000000000        0.0000000000000000     
  0.19426065088757458        0.0000000000000000        0.0000000000000000     
  0.19554289940828465        0.0000000000000000        0.0000000000000000     
  0.19682514792899472        0.0000000000000000        0.0000000000000000     
  0.19810739644970479        0.0000000000000000        0.0000000000000000     
  0.19938964497041486        0.0000000000000000        0.0000000000000000     
  0.20067189349112494        0.0000000000000000        0.0000000000000000     
  0.20195414201183501        0.0000000000000000        0.0000000000000000     
  0.20323639053254508        0.0000000000000000        0.0000000000000000     
  0.20451863905325515        0.0000000000000000        0.0000000000000000     
  0.20580088757396522        0.0000000000000000        0.0000000000000000     
  0.20708313609467530        0.0000000000000000        0.0000000000000000     
  0.20836538461538537        0.0000000000000000        0.0000000000000000     
  0.20964763313609544        0.0000000000000000        0.0000000000000000     
  0.21092988165680551        0.0000000000000000        0.0000000000000000     
  0.21221213017751558        0.0000000000000000        0.0000000000000000     
  0.21349437869822566        0.0000000000000000        0.0000000000000000     
  0.21477662721893573        0.0000000000000000        0.0000000000000000     
  0.21605887573964580        0.0000000000000000        0.0000000000000000     
  0.21670000000000000        0.0000000000000000        0.0000000000000000     
   0.0000000000000000        6.4112426035502961E-004   0.0000000000000000     
   6.4112426035502961E-004   6.4112426035502961E-004   2.5364260906371173E-004
   1.9233727810650889E-003   6.4112426035502961E-004   4.1909490268237937E-004
   3.2056213017751479E-003   6.4112426035502961E-004   6.4105089171761771E-004
   4.4878698224852069E-003   6.4112426035502961E-004   8.7242567052983231E-004
   5.7701183431952659E-003   6.4112426035502961E-004   1.0529414162815868E-003
   7.0523668639053249E-003   6.4112426035502961E-004   1.1722005868186102E-003
   8.3346153846153848E-003   6.4112426035502961E-004   1.2359728866389928E-003
   9.6168639053254446E-003   6.4112426035502961E-004   1.2556012590171138E-003
   1.0899112426035504E-002   6.4112426035502961E-004   1.2433088356213358E-003
   1.2181360946745564E-002   6.4112426035502961E-004   1.2088188632006953E-003
   1.3463609467455624E-002   6.4112426035502961E-004   1.1600988656846577E-003
   1.4745857988165684E-002   6.4112426035502961E-004   1.1033374242747963E-003
   1.6028106508875744E-002   6.4112426035502961E-004   1.0430670808941050E-003
   1.7310355029585802E-002   6.4112426035502961E-004   9.8250382697964624E-004
   1.8592603550295860E-002   6.4112426035502961E-004   9.2383716850400106E-004
   1.9874852071005918E-002   6.4112426035502961E-004   8.6846682017060551E-004
   2.1157100591715976E-002   6.4112426035502961E-004   8.1720093039589013E-004
   2.2439349112426035E-002   6.4112426035502961E-004   7.7041788070372058E-004
   2.3721597633136093E-002   6.4112426035502961E-004   7.2819461568349370E-004
   2.5003846153846151E-002   6.4112426035502961E-004   6.9040599971152835E-004
   2.6286094674556209E-002   6.4112426035502961E-004   6.5679980653028951E-004
   2.7568343195266267E-002   6.4112426035502961E-004   6.2705174714359645E-004
   2.8850591715976325E-002   6.4112426035502961E-004   6.0080459107251854E-004
   3.0132840236686383E-002   6.4112426035502961E-004   5.7769494698572011E-004
   3.1415088757396445E-002   6.4112426035502961E-004   5.5737071813991273E-004
   3.2697337278106503E-002   6.4112426035502961E-004   5.3950170008108789E-004
   3.3979585798816561E-002   6.4112426035502961E-004   5.2378528141909877E-004
   3.5261834319526619E-002   6.4112426035502961E-004   5.0994876400723181E-004
   3.6544082840236677E-002   6.4112426035502961E-004   4.9774944438836304E-004
   3.7826331360946736E-002   6.4112426035502961E-004   4.8697329379710223E-004
   3.9108579881656794E-002   6.4112426035502961E-004   4.7743283348114344E-004
   4.0390828402366852E-002   6.4112426035502961E-004   4.6896461752502498E-004
   4.1673076923076910E-002   6.4112426035502961E-004   4.6142659760871861E-004
   4.2955325443786968E-002   6.4112426035502961E-004   4.5469554371647015E-004
   4.4237573964497026E-002   6.4112426035502961E-004   4.4866462394134270E-004
   4.5519822485207084E-002   6.4112426035502961E-004   4.4324119775091572E-004
   4.6802071005917142E-002   6.4112426035502961E-004   4.3834484462723292E-004
   4.8084319526627201E-002   6.4112426035502961E-004   4.3390562941954827E-004
   4.9366568047337259E-002   6.4112426035502961E-004   4.2986259338686621E-004
   5.0648816568047317E-002   6.4112426035502961E-004   4.2616245301976282E-004
   5.1931065088757375E-002   6.4112426035502961E-004   4.2275848579514648E-004
   5.3213313609467433E-002   6.4112426035502961E-004   4.1960958124213286E-004
   5.4495562130177491E-002   6.4112426035502961E-004   4.1667943643350618E-004
   5.5777810650887549E-002   6.4112426035502961E-004   4.1393587650903163E-004
   5.7060059171597607E-002   6.4112426035502961E-004   4.1135028279123530E-004
   5.8342307692307666E-002   6.4112426035502961E-004   4.0889711300554223E-004
   5.9624556213017724E-002   6.4112426035502961E-004   4.0655350006746187E-004
   6.0906804733727782E-002   6.4112426035502961E-004   4.0429891780890715E-004
   6.2189053254437840E-002   6.4112426035502961E-004   4.0211490355028919E-004
   6.3471301775147898E-002   6.4112426035502961E-004   3.9998482898532552E-004
   6.4753550295857956E-002   6.4112426035502961E-004   3.9789371202242081E-004
   6.6035798816568014E-002   6.4112426035502961E-004   3.9582806333826381E-004
   6.7318047337278072E-002   6.4112426035502961E-004   3.9377576231386813E-004
   6.8600295857988131E-002   6.4112426035502961E-004   3.9172595776474739E-004
   6.9882544378698189E-002   6.4112426035502961E-004   3.8966898953347255E-004
   7.1164792899408247E-002   6.4112426035502961E-004   3.8759632752577292E-004
   7.2447041420118305E-002   6.4112426035502961E-004   3.8550052521877200E-004
   7.3729289940828363E-002   6.4112426035502961E-004   3.8337518499695881E-004
   7.5011538461538421E-002   6.4112426035502961E-004   3.8121493302190675E-004
   7.6293786982248479E-002   6.4112426035502961E-004   3.7901540152616677E-004
   7.7576035502958537E-002   6.4112426035502961E-004   3.7677321664738298E-004
   7.8858284023668596E-002   6.4112426035502961E-004   3.7448599009891841E-004
   8.0140532544378654E-002   6.4112426035502961E-004   3.7215231308879268E-004
   8.1422781065088712E-002   6.4112426035502961E-004   3.6977175105453624E-004
   8.2705029585798770E-002   6.4112426035502961E-004   3.6734483789319859E-004
   8.3987278106508828E-002   6.4112426035502961E-004   3.6487306847388551E-004
   8.5269526627218886E-002   6.4112426035502961E-004   3.6235888834420041E-004
   8.6551775147928944E-002   6.4112426035502961E-004   3.5980567968548621E-004
   8.7834023668639002E-002   6.4112426035502961E-004   3.5721774263993919E-004
   8.9116272189349061E-002   6.4112426035502961E-004   3.5460027139045129E-004
   9.0398520710059119E-002   6.4112426035502961E-004   3.5195932443753467E-004
   9.1680769230769177E-002   6.4112426035502961E-004   3.4930178878156382E-004
   9.2963017751479235E-002   6.4112426035502961E-004   3.4663533784454984E-004
   9.4245266272189293E-002   6.4112426035502961E-004   3.4396838329910773E-004
   9.5527514792899351E-002   6.4112426035502961E-004   3.4131002112960056E-004
   9.6809763313609409E-002   6.4112426035502961E-004   3.3866997255307951E-004
   9.8092011834319467E-002   6.4112426035502961E-004   3.3605852074241205E-004
   9.9374260355029526E-002   6.4112426035502961E-004   3.3348644449245724E-004
  0.10065650887573958        6.4112426035502961E-004   3.3096495039351605E-004
  0.10193875739644964        6.4112426035502961E-004   3.2850560521324680E-004
  0.10322100591715970        6.4112426035502961E-004   3.2612027061097916E-004
  0.10450325443786976        6.4112426035502961E-004   3.2382104247828740E-004
  0.10578550295857982        6.4112426035502961E-004   3.2162019748393524E-004
  0.10706775147928987        6.4112426035502961E-004   3.1953014972114537E-004
  0.10834999999999993        6.4112426035502961E-004   3.1756342072668557E-004
  0.10963224852070999        6.4112426035502961E-004   3.1573262667530295E-004
  0.11091449704142005        6.4112426035502961E-004   3.1405048723457958E-004
  0.11219674556213011        6.4112426035502961E-004   3.1252986407792225E-004
  0.11347899408284016        6.4112426035502961E-004   3.1118382328295166E-004
  0.11476124260355022        6.4112426035502961E-004   3.1002564232185685E-004
  0.11604349112426028        6.4112426035502961E-004   3.0906904018619311E-004
  0.11732573964497034        6.4112426035502961E-004   3.0832786709826548E-004
  0.11860798816568040        6.4112426035502961E-004   3.0781750274564047E-004
  0.11989023668639046        6.4112426035502961E-004   3.0755564444137341E-004
  0.12117248520710051        6.4112426035502961E-004   3.0756195417452041E-004
  0.12245473372781057        6.4112426035502961E-004   3.0785629996492900E-004
  0.12373698224852063        6.4112426035502961E-004   3.0845958086071648E-004
  0.12501923076923069        6.4112426035502961E-004   3.0939437782041758E-004
  0.12630147928994076        6.4112426035502961E-004   3.1068539107327435E-004
  0.12758372781065083        6.4112426035502961E-004   3.1235980794709807E-004
  0.12886597633136090        6.4112426035502961E-004   3.1444761193400155E-004
  0.13014822485207098        6.4112426035502961E-004   3.1698184514965445E-004
  0.13143047337278105        6.4112426035502961E-004   3.1999882988619475E-004
  0.13271272189349112        6.4112426035502961E-004   3.2353834489302614E-004
  0.13399497041420119        6.4112426035502961E-004   3.2764374692081894E-004
  0.13527721893491126        6.4112426035502961E-004   3.3236202523528402E-004
  0.13655946745562134        6.4112426035502961E-004   3.3774377585545307E-004
  0.13784171597633141        6.4112426035502961E-004   3.4384308195056491E-004
  0.13912396449704148        6.4112426035502961E-004   3.5071728798250580E-004
  0.14040621301775155        6.4112426035502961E-004   3.5842665672613491E-004
  0.14168846153846162        6.4112426035502961E-004   3.6703390088281416E-004
  0.14297071005917170        6.4112426035502961E-004   3.7660358372718973E-004
  0.14425295857988177        6.4112426035502961E-004   3.8720138645563122E-004
  0.14553520710059184        6.4112426035502961E-004   3.9889324258028647E-004
  0.14681745562130191        6.4112426035502961E-004   4.1174434227649731E-004
  0.14809970414201198        6.4112426035502961E-004   4.2581801094914828E-004
  0.14938195266272206        6.4112426035502961E-004   4.4117446699227722E-004
  0.15066420118343213        6.4112426035502961E-004   4.5786946330123469E-004
  0.15194644970414220        6.4112426035502961E-004   4.7595281605021593E-004
  0.15322869822485227        6.4112426035502961E-004   4.9546682288043032E-004
  0.15451094674556234        6.4112426035502961E-004   5.1644457132510107E-004
  0.15579319526627242        6.4112426035502961E-004   5.3890813798060562E-004
  0.15707544378698249        6.4112426035502961E-004   5.6286667939835797E-004
  0.15835769230769256        6.4112426035502961E-004   5.8831441814558634E-004
  0.15963994082840263        6.4112426035502961E-004   6.1522853131279606E-004
  0.16092218934911270        6.4112426035502961E-004   6.4356695474987794E-004
  0.16220443786982278        6.4112426035502961E-004   6.7326612369693708E-004
  0.16348668639053285        6.4112426035502961E-004   7.0423867947243084E-004
  0.16476893491124292        6.4112426035502961E-004   7.3637118181194689E-004
  0.16605118343195299        6.4112426035502961E-004   7.6952187696131152E-004
  0.16733343195266306        6.4112426035502961E-004   8.0351858213428568E-004
  0.16861568047337314        6.4112426035502961E-004   8.3815675690995513E-004
  0.16989792899408321        6.4112426035502961E-004   8.7319784063864272E-004
  0.17118017751479328        6.4112426035502961E-004   9.0836794148650929E-004
  0.17246242603550335        6.4112426035502961E-004   9.4335696591750983E-004
  0.17374467455621342        6.4112426035502961E-004   9.7781827643084965E-004
  0.17502692307692350        6.4112426035502961E-004   1.0113689588037681E-003
  0.17630917159763357        6.4112426035502961E-004   1.0435907678895476E-003
  0.17759142011834364        6.4112426035502961E-004   1.0740317983787700E-003
  0.17887366863905371        6.4112426035502961E-004   1.1022088866411356E-003
  0.18015591715976378        6.4112426035502961E-004   1.1276107709781102E-003
  0.18143816568047386        6.4112426035502961E-004   1.1497023108617023E-003
  0.18272041420118393        6.4112426035502961E-004   1.1679299031142349E-003
  0.18400266272189400        6.4112426035502961E-004   1.1817262147593554E-003
  0.18528491124260407        6.4112426035502961E-004   1.1905212892830595E-003
  0.18656715976331414        6.4112426035502961E-004   1.1938132084012001E-003
  0.18784940828402422        6.4112426035502961E-004   1.1912198644564473E-003
  0.18913165680473429        6.4112426035502961E-004   1.1822210140789036E-003
  0.19041390532544436        6.4112426035502961E-004   1.1664089794837301E-003
  0.19169615384615443        6.4112426035502961E-004   1.1434837133025098E-003
  0.19297840236686450        6.4112426035502961E-004   1.1132915531605865E-003
  0.19426065088757458        6.4112426035502961E-004   1.0758477328069928E-003
  0.19554289940828465        6.4112426035502961E-004   1.0313540225315582E-003
  0.19682514792899472        6.4112426035502961E-004   9.8021726085982096E-004
  0.19810739644970479        6.4112426035502961E-004   9.2306735018156643E-004
  0.19938964497041486        6.4112426035502961E-004   8.6077394222042137E-004
  0.20067189349112494        6.4112426035502961E-004   7.9446174634606416E-004
  0.20195414201183501        6.4112426035502961E-004   7.2552492271897183E-004
  0.20323639053254508        6.4112426035502961E-004   6.5564097816852099E-004
  0.20451863905325515        6.4112426035502961E-004   5.8678239069319513E-004
  0.20580088757396522        6.4112426035502961E-004   5.2121604254214918E-004
  0.20708313609467530        6.4112426035502961E-004   4.6145912815861697E-004
  0.20836538461538537        6.4112426035502961E-004   4.1011832924452797E-004
  0.20964763313609544        6.4112426035502961E-004   3.6949227690986680E-004
  0.21092988165680551        6.4112426035502961E-004   3.4084673584468690E-004
  0.21221213017751558        6.4112426035502961E-004   3.2344911994802787E-004
  0.21349437869822566        6.4112426035502961E-004   3.1312179359718311E-004
  0.21477662721893573        6.4112426035502961E-004   2.9569041845381385E-004
  0.21605887573964580        6.4112426035502961E-004   2.1167648681575762E-004
  0.21670000000000000        6.4112426035502961E-004   0.0000000000000000     
   0.0000000000000000        1.9233727810650889E-003   0.0000000000000000     
   6.4112426035502961E-004   1.9233727810650889E-003   2.9976914604310959E-004
   1.9233727810650889E-003   1.9233727810650889E-003   7.3217175984134294E-004
   3.2056213017751479E-003   1.9233727810650889E-003   1.2407353389751914E-003
   4.4878698224852069E-003   1.9233727810650889E-003   1.7491467704601022E-003
   5.7701183431952659E-003   1.9233727810650889E-003   2.1781222801264153E-003
   7.0523668639053249E-003   1.9233727810650889E-003   2.4983430003483764E-003
   8.3346153846153848E-003   1.9233727810650889E-003   2.7072844101677473E-003
   9.6168639053254446E-003   1.9233727810650889E-003   2.8182359069463848E-003
   1.0899112426035504E-002   1.9233727810650889E-003   2.8502970935362585E-003
   1.2181360946745564E-002   1.9233727810650889E-003   2.8240882767658422E-003
   1.3463609467455624E-002   1.9233727810650889E-003   2.7559749315725227E-003
   1.4745857988165684E-002   1.9233727810650889E-003   2.6600628086184547E-003
   1.6028106508875744E-002   1.9233727810650889E-003   2.5474430827340517E-003
   1.7310355029585802E-002   1.9233727810650889E-003   2.4265314892871780E-003
   1.8592603550295860E-002   1.9233727810650889E-003   2.3035181980238409E-003
   1.9874852071005918E-002   1.9233727810650889E-003   2.1827747179954953E-003
   2.1157100591715976E-002   1.9233727810650889E-003   2.0672311848442706E-003
   2.2439349112426035E-002   1.9233727810650889E-003   1.9587096376433100E-003
   2.3721597633136093E-002   1.9233727810650889E-003   1.8582044946918687E-003
   2.5003846153846151E-002   1.9233727810650889E-003   1.7661110187084635E-003
   2.6286094674556209E-002   1.9233727810650889E-003   1.6824063187842672E-003
   2.7568343195266267E-002   1.9233727810650889E-003   1.6067889965816597E-003
   2.8850591715976325E-002   1.9233727810650889E-003   1.5387841060343571E-003
   3.0132840236686383E-002   1.9233727810650889E-003   1.4778199332534556E-003
   3.1415088757396445E-002   1.9233727810650889E-003   1.4232825082453723E-003
   3.2697337278106503E-002   1.9233727810650889E-003   1.3745529604460422E-003
   3.3979585798816561E-002   1.9233727810650889E-003   1.3310319736886986E-003
   3.5261834319526619E-002   1.9233727810650889E-003   1.2921547738664830E-003
   3.6544082840236677E-002   1.9233727810650889E-003   1.2573993457135049E-003
   3.7826331360946736E-002   1.9233727810650889E-003   1.2262899457047198E-003
   3.9108579881656794E-002   1.9233727810650889E-003   1.1983974605341190E-003
   4.0390828402366852E-002   1.9233727810650889E-003   1.1733377472494901E-003
   4.1673076923076910E-002   1.9233727810650889E-003   1.1507687694937896E-003
   4.2955325443786968E-002   1.9233727810650889E-003   1.1303870995221020E-003
   4.4237573964497026E-002   1.9233727810650889E-003   1.1119241732523725E-003