 title=Umag
 variables=x,y,Umag
 zone i=         121 ,j=         121
 
   0.0000000000000000        0.0000000000000000        0.0000000000000000     
   9.1050420168067229E-004   0.0000000000000000        0.0000000000000000     
   2.7315126050420167E-003   0.0000000000000000        0.0000000000000000     
   4.5525210084033617E-003   0.0000000000000000        0.0000000000000000     
   6.3735294117647067E-003   0.0000000000000000        0.0000000000000000     
   8.1945378151260517E-003   0.0000000000000000        0.0000000000000000     
   1.0015546218487397E-002   0.0000000000000000        0.0000000000000000     
   1.1836554621848742E-002   0.0000000000000000        0.0000000000000000     
   1.3657563025210087E-002   0.0000000000000000        0.0000000000000000     
   1.5478571428571432E-002   0.0000000000000000        0.0000000000000000     
   1.7299579831932775E-002   0.0000000000000000        0.0000000000000000     
   1.9120588235294118E-002   0.0000000000000000        0.0000000000000000     
   2.0941596638655462E-002   0.0000000000000000        0.0000000000000000     
   2.2762605042016805E-002   0.0000000000000000        0.0000000000000000     
   2.4583613445378148E-002   0.0000000000000000        0.0000000000000000     
   2.6404621848739492E-002   0.0000000000000000        0.0000000000000000     
   2.8225630252100835E-002   0.0000000000000000        0.0000000000000000     
   3.0046638655462178E-002   0.0000000000000000        0.0000000000000000     
   3.1867647058823521E-002   0.0000000000000000        0.0000000000000000     
   3.3688655462184865E-002   0.0000000000000000        0.0000000000000000     
   3.5509663865546208E-002   0.0000000000000000        0.0000000000000000     
   3.7330672268907551E-002   0.0000000000000000        0.0000000000000000     
   3.9151680672268895E-002   0.0000000000000000        0.0000000000000000     
   4.0972689075630238E-002   0.0000000000000000        0.0000000000000000     
   4.2793697478991581E-002   0.0000000000000000        0.0000000000000000     
   4.4614705882352924E-002   0.0000000000000000        0.0000000000000000     
   4.6435714285714268E-002   0.0000000000000000        0.0000000000000000     
   4.8256722689075611E-002   0.0000000000000000        0.0000000000000000     
   5.0077731092436954E-002   0.0000000000000000        0.0000000000000000     
   5.1898739495798298E-002   0.0000000000000000        0.0000000000000000     
   5.3719747899159641E-002   0.0000000000000000        0.0000000000000000     
   5.5540756302520984E-002   0.0000000000000000        0.0000000000000000     
   5.7361764705882327E-002   0.0000000000000000        0.0000000000000000     
   5.9182773109243671E-002   0.0000000000000000        0.0000000000000000     
   6.1003781512605014E-002   0.0000000000000000        0.0000000000000000     
   6.2824789915966364E-002   0.0000000000000000        0.0000000000000000     
   6.4645798319327707E-002   0.0000000000000000        0.0000000000000000     
   6.6466806722689051E-002   0.0000000000000000        0.0000000000000000     
   6.8287815126050394E-002   0.0000000000000000        0.0000000000000000     
   7.0108823529411737E-002   0.0000000000000000        0.0000000000000000     
   7.1929831932773081E-002   0.0000000000000000        0.0000000000000000     
   7.3750840336134424E-002   0.0000000000000000        0.0000000000000000     
   7.5571848739495767E-002   0.0000000000000000        0.0000000000000000     
   7.7392857142857110E-002   0.0000000000000000        0.0000000000000000     
   7.9213865546218454E-002   0.0000000000000000        0.0000000000000000     
   8.1034873949579797E-002   0.0000000000000000        0.0000000000000000     
   8.2855882352941140E-002   0.0000000000000000        0.0000000000000000     
   8.4676890756302484E-002   0.0000000000000000        0.0000000000000000     
   8.6497899159663827E-002   0.0000000000000000        0.0000000000000000     
   8.8318907563025170E-002   0.0000000000000000        0.0000000000000000     
   9.0139915966386513E-002   0.0000000000000000        0.0000000000000000     
   9.1960924369747857E-002   0.0000000000000000        0.0000000000000000     
   9.3781932773109200E-002   0.0000000000000000        0.0000000000000000     
   9.5602941176470543E-002   0.0000000000000000        0.0000000000000000     
   9.7423949579831887E-002   0.0000000000000000        0.0000000000000000     
   9.9244957983193230E-002   0.0000000000000000        0.0000000000000000     
  0.10106596638655457        0.0000000000000000        0.0000000000000000     
  0.10288697478991592        0.0000000000000000        0.0000000000000000     
  0.10470798319327726        0.0000000000000000        0.0000000000000000     
  0.10652899159663860        0.0000000000000000        0.0000000000000000     
  0.10834999999999995        0.0000000000000000        0.0000000000000000     
  0.11017100840336129        0.0000000000000000        0.0000000000000000     
  0.11199201680672263        0.0000000000000000        0.0000000000000000     
  0.11381302521008398        0.0000000000000000        0.0000000000000000     
  0.11563403361344532        0.0000000000000000        0.0000000000000000     
  0.11745504201680666        0.0000000000000000        0.0000000000000000     
  0.11927605042016801        0.0000000000000000        0.0000000000000000     
  0.12109705882352935        0.0000000000000000        0.0000000000000000     
  0.12291806722689069        0.0000000000000000        0.0000000000000000     
  0.12473907563025204        0.0000000000000000        0.0000000000000000     
  0.12656008403361338        0.0000000000000000        0.0000000000000000     
  0.12838109243697474        0.0000000000000000        0.0000000000000000     
  0.13020210084033609        0.0000000000000000        0.0000000000000000     
  0.13202310924369745        0.0000000000000000        0.0000000000000000     
  0.13384411764705881        0.0000000000000000        0.0000000000000000     
  0.13566512605042017        0.0000000000000000        0.0000000000000000     
  0.13748613445378152        0.0000000000000000        0.0000000000000000     
  0.13930714285714288        0.0000000000000000        0.0000000000000000     
  0.14112815126050424        0.0000000000000000        0.0000000000000000     
  0.14294915966386559        0.0000000000000000        0.0000000000000000     
  0.14477016806722695        0.0000000000000000        0.0000000000000000     
  0.14659117647058831        0.0000000000000000        0.0000000000000000     
  0.14841218487394967        0.0000000000000000        0.0000000000000000     
  0.15023319327731102        0.0000000000000000        0.0000000000000000     
  0.15205420168067238        0.0000000000000000        0.0000000000000000     
  0.15387521008403374        0.0000000000000000        0.0000000000000000     
  0.15569621848739509        0.0000000000000000        0.0000000000000000     
  0.15751722689075645        0.0000000000000000        0.0000000000000000     
  0.15933823529411781        0.0000000000000000        0.0000000000000000     
  0.16115924369747917        0.0000000000000000        0.0000000000000000     
  0.16298025210084052        0.0000000000000000        0.0000000000000000     
  0.16480126050420188        0.0000000000000000        0.0000000000000000     
  0.16662226890756324        0.0000000000000000        0.0000000000000000     
  0.16844327731092459        0.0000000000000000        0.0000000000000000     
  0.17026428571428595        0.0000000000000000        0.0000000000000000     
  0.17208529411764731        0.0000000000000000        0.0000000000000000     
  0.17390630252100867        0.0000000000000000        0.0000000000000000     
  0.17572731092437002        0.0000000000000000        0.0000000000000000     
  0.17754831932773138        0.0000000000000000        0.0000000000000000     
  0.17936932773109274        0.0000000000000000        0.0000000000000000     
  0.18119033613445409        0.0000000000000000        0.0000000000000000     
  0.18301134453781545        0.0000000000000000        0.0000000000000000     
  0.18483235294117681        0.0000000000000000        0.0000000000000000     
  0.18665336134453817        0.0000000000000000        0.0000000000000000     
  0.18847436974789952        0.0000000000000000        0.0000000000000000     
  0.19029537815126088        0.0000000000000000        0.0000000000000000     
  0.19211638655462224        0.0000000000000000        0.0000000000000000     
  0.19393739495798359        0.0000000000000000        0.0000000000000000     
  0.19575840336134495        0.0000000000000000        0.0000000000000000     
  0.19757941176470631        0.0000000000000000        0.0000000000000000     
  0.19940042016806767        0.0000000000000000        0.0000000000000000     
  0.20122142857142902        0.0000000000000000        0.0000000000000000     
  0.20304243697479038        0.0000000000000000        0.0000000000000000     
  0.20486344537815174        0.0000000000000000        0.0000000000000000     
  0.20668445378151309        0.0000000000000000        0.0000000000000000     
  0.20850546218487445        0.0000000000000000        0.0000000000000000     
  0.21032647058823581        0.0000000000000000        0.0000000000000000     
  0.21214747899159717        0.0000000000000000        0.0000000000000000     
  0.21396848739495852        0.0000000000000000        0.0000000000000000     
  0.21578949579831988        0.0000000000000000        0.0000000000000000     
  0.21670000000000000        0.0000000000000000        0.0000000000000000     
   5.5752302809922577E-020   9.1050420168067229E-004   0.0000000000000000     
   9.1050420168067240E-004   9.1050420168067219E-004   3.3877155151267258E-004
   2.7315126050420167E-003   9.1050420168067240E-004   7.0995873604145869E-004
   4.5525210084033608E-003   9.1050420168067229E-004   1.1802080282623090E-003
   6.3735294117647067E-003   9.1050420168067240E-004   1.4888793240537613E-003
   8.1945378151260517E-003   9.1050420168067229E-004   1.6575782708789038E-003
   1.0015546218487397E-002   9.1050420168067229E-004   1.7009944166524458E-003
   1.1836554621848742E-002   9.1050420168067229E-004   1.6670581210825838E-003
   1.3657563025210087E-002   9.1050420168067229E-004   1.5852460189403807E-003
   1.5478571428571430E-002   9.1050420168067229E-004   1.4800007176770768E-003
   1.7299579831932779E-002   9.1050420168067229E-004   1.3669962848809950E-003
   1.9120588235294118E-002   9.1050420168067229E-004   1.2562815841245679E-003
   2.0941596638655462E-002   9.1050420168067229E-004   1.1535786717193231E-003
   2.2762605042016801E-002   9.1050420168067229E-004   1.0617039740608784E-003
   2.4583613445378148E-002   9.1050420168067240E-004   9.8154542720363109E-004
   2.6404621848739492E-002   9.1050420168067229E-004   9.1282726305287067E-004
   2.8225630252100835E-002   9.1050420168067229E-004   8.5462913145215090E-004
   3.0046638655462178E-002   9.1050420168067229E-004   8.0573771322102320E-004
   3.1867647058823521E-002   9.1050420168067229E-004   7.6486423562370292E-004
   3.3688655462184865E-002   9.1050420168067229E-004   7.3077082088725297E-004
   3.5509663865546201E-002   9.1050420168067229E-004   7.0233478064348962E-004
   3.7330672268907551E-002   9.1050420168067229E-004   6.7857417253695861E-004
   3.9151680672268895E-002   9.1050420168067229E-004   6.5865039537520240E-004
   4.0972689075630238E-002   9.1050420168067229E-004   6.4185851391871957E-004
   4.2793697478991581E-002   9.1050420168067229E-004   6.2761198782951093E-004
   4.4614705882352924E-002   9.1050420168067240E-004   6.1542579151518007E-004
   4.6435714285714268E-002   9.1050420168067219E-004   6.0490010818053626E-004
   4.8256722689075611E-002   9.1050420168067219E-004   5.9570566229882860E-004
   5.0077731092436954E-002   9.1050420168067229E-004   5.8757108607997242E-004
   5.1898739495798298E-002   9.1050420168067229E-004   5.8027234515829469E-004
   5.3719747899159634E-002   9.1050420168067240E-004   5.7362406166512809E-004
   5.5540756302520991E-002   9.1050420168067219E-004   5.6747249485456484E-004
   5.7361764705882327E-002   9.1050420168067219E-004   5.6168992207783074E-004
   5.9182773109243671E-002   9.1050420168067229E-004   5.5617017670267098E-004
   6.1003781512605014E-002   9.1050420168067229E-004   5.5082512713361127E-004
   6.2824789915966378E-002   9.1050420168067229E-004   5.4558191273314943E-004
   6.4645798319327707E-002   9.1050420168067229E-004   5.4038078311011682E-004
   6.6466806722689065E-002   9.1050420168067229E-004   5.3517341465234296E-004
   6.8287815126050394E-002   9.1050420168067219E-004   5.2992160159152913E-004
   7.0108823529411737E-002   9.1050420168067229E-004   5.2459623826390188E-004
   7.1929831932773081E-002   9.1050420168067229E-004   5.1917652505799707E-004
   7.3750840336134424E-002   9.1050420168067229E-004   5.1364934330670438E-004
   7.5571848739495767E-002   9.1050420168067229E-004   5.0800875467377725E-004
   7.7392857142857110E-002   9.1050420168067229E-004   5.0225558892638288E-004
   7.9213865546218468E-002   9.1050420168067229E-004   4.9639709081491102E-004
   8.1034873949579797E-002   9.1050420168067229E-004   4.9044660246638479E-004
   8.2855882352941140E-002   9.1050420168067229E-004   4.8442326256266670E-004
   8.4676890756302484E-002   9.1050420168067229E-004   4.7835170786813869E-004
   8.6497899159663827E-002   9.1050420168067229E-004   4.7226176657426860E-004
   8.8318907563025170E-002   9.1050420168067219E-004   4.6618813660618250E-004
   9.0139915966386500E-002   9.1050420168067219E-004   4.6017004571279399E-004
   9.1960924369747871E-002   9.1050420168067219E-004   4.5425089376302183E-004
   9.3781932773109200E-002   9.1050420168067229E-004   4.4847788183267093E-004
   9.5602941176470543E-002   9.1050420168067219E-004   4.4290163666279306E-004
   9.7423949579831901E-002   9.1050420168067219E-004   4.3757584509777241E-004
   9.9244957983193244E-002   9.1050420168067229E-004   4.3255691893739543E-004
  0.10106596638655457        9.1050420168067229E-004   4.2790371995679035E-004
  0.10288697478991592        9.1050420168067229E-004   4.2367739890198953E-004
  0.10470798319327726        9.1050420168067240E-004   4.1994138467769081E-004
  0.10652899159663862        9.1050420168067219E-004   4.1676176529564519E-004
  0.10834999999999995        9.1050420168067240E-004   4.1420801926853263E-004
  0.11017100840336130        9.1050420168067229E-004   4.1235468427131098E-004
  0.11199201680672263        9.1050420168067229E-004   4.1128658154695373E-004
  0.11381302521008398        9.1050420168067240E-004   4.1110074056834901E-004
  0.11563403361344532        9.1050420168067229E-004   4.1189654538287957E-004
  0.11745504201680666        9.1050420168067229E-004   4.1376958869496038E-004
  0.11927605042016801        9.1050420168067229E-004   4.1682207081836085E-004
  0.12109705882352935        9.1050420168067229E-004   4.2116638931131647E-004
  0.12291806722689069        9.1050420168067229E-004   4.2692705085630708E-004
  0.12473907563025204        9.1050420168067229E-004   4.3424151541350173E-004
  0.12656008403361341        9.1050420168067229E-004   4.4326078656749962E-004
  0.12838109243697474        9.1050420168067229E-004   4.5414995138345248E-004
  0.13020210084033609        9.1050420168067229E-004   4.6708847160506235E-004
  0.13202310924369745        9.1050420168067229E-004   4.8227014342845171E-004
  0.13384411764705884        9.1050420168067229E-004   4.9990259452909152E-004
  0.13566512605042017        9.1050420168067229E-004   5.2020621001420562E-004
  0.13748613445378149        9.1050420168067219E-004   5.4341237928181348E-004
  0.13930714285714288        9.1050420168067229E-004   5.6976095932948065E-004
  0.14112815126050424        9.1050420168067219E-004   5.9949684711614755E-004
  0.14294915966386559        9.1050420168067229E-004   6.3286554704036551E-004
  0.14477016806722695        9.1050420168067229E-004   6.7010761003907045E-004
  0.14659117647058831        9.1050420168067229E-004   7.1145181154318345E-004
  0.14841218487394967        9.1050420168067219E-004   7.5710693075992715E-004
  0.15023319327731102        9.1050420168067229E-004   8.0725199854655462E-004
  0.15205420168067238        9.1050420168067229E-004   8.6202490065758082E-004
  0.15387521008403374        9.1050420168067229E-004   9.2150926183487154E-004
  0.15569621848739509        9.1050420168067219E-004   9.8571959754159208E-004
  0.15751722689075642        9.1050420168067240E-004   1.0545848058651989E-003
  0.15933823529411781        9.1050420168067229E-004   1.1279301824611791E-003
  0.16115924369747919        9.1050420168067240E-004   1.2054582740843483E-003
  0.16298025210084052        9.1050420168067229E-004   1.2867290364499337E-003
  0.16480126050420188        9.1050420168067219E-004   1.3711399213108082E-003
  0.16662226890756321        9.1050420168067229E-004   1.4579066727963212E-003
  0.16844327731092459        9.1050420168067229E-004   1.5460457430211965E-003
  0.17026428571428595        9.1050420168067229E-004   1.6343593238190529E-003
  0.17208529411764731        9.1050420168067229E-004   1.7214239769689390E-003
  0.17390630252100869        9.1050420168067229E-004   1.8055837762167889E-003
  0.17572731092437002        9.1050420168067219E-004   1.8849485810508873E-003
  0.17754831932773135        9.1050420168067229E-004   1.9573984482584971E-003
  0.17936932773109274        9.1050420168067219E-004   2.0205917167896055E-003
  0.18119033613445409        9.1050420168067219E-004   2.0720000374354771E-003
  0.18301134453781545        9.1050420168067229E-004   2.1089101719715233E-003
  0.18483235294117681        9.1050420168067229E-004   2.1285540793750096E-003
  0.18665336134453817        9.1050420168067240E-004   2.1288209497351092E-003
  0.18847436974789952        9.1050420168067229E-004   2.1070940698612868E-003
  0.19029537815126088        9.1050420168067229E-004   2.0608123485895522E-003
  0.19211638655462224        9.1050420168067240E-004   1.9883221387654282E-003
  0.19393739495798359        9.1050420168067229E-004   1.8889783246966206E-003
  0.19575840336134498        9.1050420168067240E-004   1.7633579350363835E-003
  0.19757941176470631        9.1050420168067229E-004   1.6134260518799299E-003
  0.19940042016806767        9.1050420168067229E-004   1.4426684929375704E-003
  0.20122142857142905        9.1050420168067240E-004   1.2561825661431820E-003
  0.20304243697479038        9.1050420168067240E-004   1.0606707838961981E-003
  0.20486344537815174        9.1050420168067229E-004   8.6450237022373314E-004
  0.20668445378151312        9.1050420168067229E-004   6.7756116321130669E-004
  0.20850546218487445        9.1050420168067229E-004   5.1214565585018935E-004
  0.21032647058823581        9.1050420168067229E-004   3.8190609006022279E-004
  0.21214747899159717        9.1050420168067240E-004   3.0112550017144329E-004
  0.21396848739495852        9.1050420168067229E-004   2.5968965656620848E-004
  0.21578949579831988        9.1050420168067240E-004   1.8810570559949722E-004
  0.21670000000000000        9.1050420168067240E-004   0.0000000000000000     
   1.6725690842976769E-019   2.7315126050420167E-003   0.0000000000000000     
   9.1050420168067153E-004   2.7315126050420167E-003   6.0392448926767373E-004
   2.7315126050420162E-003   2.7315126050420167E-003   1.3049306576261293E-003
   4.5525210084033617E-003   2.7315126050420162E-003   2.0812376379977615E-003
   6.3735294117647067E-003   2.7315126050420167E-003   2.7173843291807315E-003
   8.1945378151260517E-003   2.7315126050420167E-003   3.1725103036128180E-003
   1.0015546218487397E-002   2.7315126050420167E-003   3.4136384234061011E-003
   1.1836554621848742E-002   2.7315126050420167E-003   3.4868720389979826E-003
   1.3657563025210087E-002   2.7315126050420167E-003   3.4417232144695119E-003
   1.5478571428571430E-002   2.7315126050420167E-003   3.3213127128358046E-003
   1.7299579831932772E-002   2.7315126050420167E-003   3.1593626641340969E-003
   1.9120588235294118E-002   2.7315126050420167E-003   2.9800092776306884E-003
   2.0941596638655462E-002   2.7315126050420171E-003   2.7994154453513218E-003
   2.2762605042016805E-002   2.7315126050420167E-003   2.6276360190257511E-003
   2.4583613445378152E-002   2.7315126050420167E-003   2.4702154565273927E-003
   2.6404621848739495E-002   2.7315126050420167E-003   2.3296048827496957E-003
   2.8225630252100835E-002   2.7315126050420167E-003   2.2062380809262584E-003
   3.0046638655462178E-002   2.7315126050420167E-003   2.0993352865890150E-003
   3.1867647058823521E-002   2.7315126050420167E-003   2.0074610891569773E-003
   3.3688655462184865E-002   2.7315126050420167E-003   1.9288954659177123E-003
   3.5509663865546208E-002   2.7315126050420167E-003   1.8618650192540895E-003
   3.7330672268907551E-002   2.7315126050420167E-003   1.8046768994696570E-003
   3.9151680672268888E-002   2.7315126050420167E-003   1.7557875929209113E-003
   4.0972689075630238E-002   2.7315126050420162E-003   1.7138305123948188E-003
   4.2793697478991574E-002   2.7315126050420167E-003   1.6776189889588656E-003
   4.4614705882352917E-002   2.7315126050420167E-003   1.6461357697310859E-003
   4.6435714285714261E-002   2.7315126050420167E-003   1.6185160860612473E-003
   4.8256722689075611E-002   2.7315126050420167E-003   1.5940285799906952E-003
   5.0077731092436954E-002   2.7315126050420167E-003   1.5720565284789039E-003
   5.1898739495798304E-002   2.7315126050420167E-003   1.5520806283605424E-003
   5.3719747899159641E-002   2.7315126050420167E-003   1.5336638848105107E-003
   5.5540756302520984E-002   2.7315126050420167E-003   1.5164387275137486E-003
   5.7361764705882334E-002   2.7315126050420167E-003   1.5000962515764808E-003
   5.9182773109243671E-002   2.7315126050420167E-003   1.4843773706633182E-003
   6.1003781512605014E-002   2.7315126050420167E-003   1.4690656293596335E-003
   6.2824789915966364E-002   2.7315126050420167E-003   1.4539814197762145E-003
   6.4645798319327707E-002   2.7315126050420167E-003   1.4389773650139951E-003
   6.6466806722689051E-002   2.7315126050420167E-003   1.4239346582236095E-003
   6.8287815126050394E-002   2.7315126050420167E-003   1.4087601742938213E-003
   7.0108823529411737E-002   2.7315126050420167E-003   1.3933841984137101E-003
   7.1929831932773095E-002   2.7315126050420162E-003   1.3777586403583967E-003
   7.3750840336134424E-002   2.7315126050420167E-003   1.3618556248605417E-003
   7.5571848739495767E-002   2.7315126050420167E-003   1.3456663668459830E-003
   7.7392857142857110E-002   2.7315126050420162E-003   1.3292002560230172E-003
   7.9213865546218454E-002   2.7315126050420167E-003   1.3124840886706874E-003
   8.1034873949579797E-002   2.7315126050420167E-003   1.2955613959616974E-003
   8.2855882352941140E-002   2.7315126050420167E-003   1.2784918281488085E-003
   8.4676890756302498E-002   2.7315126050420162E-003   1.2613505628605570E-003
   8.6497899159663827E-002   2.7315126050420167E-003   1.2442277139363910E-003
   8.8318907563025170E-002   2.7315126050420167E-003   1.2272277249776541E-003
   9.0139915966386513E-002   2.7315126050420167E-003   1.2104687396482566E-003
   9.1960924369747857E-002   2.7315126050420167E-003   1.1940819488498219E-003
   9.3781932773109200E-002   2.7315126050420167E-003   1.1782109247490743E-003
   9.5602941176470543E-002   2.7315126050420167E-003   1.1630109622294946E-003
   9.7423949579831887E-002   2.7315126050420167E-003   1.1486484655726533E-003
   9.9244957983193230E-002   2.7315126050420167E-003   1.1353004355971034E-003
  0.10106596638655457        2.7315126050420167E-003   1.1231541477685243E-003
  0.10288697478991592        2.7315126050420167E-003   1.1124071588734822E-003
  0.10470798319327726        2.7315126050420167E-003   1.1032677934700648E-003
  0.10652899159663860        2.7315126050420167E-003   1.0959566187218994E-003
  0.10834999999999995        2.7315126050420167E-003   1.0907086989722086E-003
  0.11017100840336129        2.7315126050420167E-003   1.0877785681045625E-003
  0.11199201680672263        2.7315126050420167E-003   1.0874489911457575E-003
  0.11381302521008398        2.7315126050420167E-003   1.0900386135397388E-003
  0.11563403361344532        2.7315126050420167E-003   1.0957941668109481E-003
  0.11745504201680665        2.7315126050420167E-003   1.1050210555179647E-003
  0.11927605042016799        2.7315126050420167E-003   1.1180314191817967E-003
  0.12109705882352935        2.7315126050420167E-003   1.1351631110415525E-003
  0.12291806722689069        2.7315126050420167E-003   1.1567763568880968E-003
  0.12473907563025204        2.7315126050420167E-003   1.1832552496237807E-003
  0.12656008403361338        2.7315126050420167E-003   1.2150077356093019E-003
  0.12838109243697471        2.7315126050420167E-003   1.2524653455420164E-003
  0.13020210084033609        2.7315126050420167E-003   1.2960822038217562E-003
  0.13202310924369745        2.7315126050420167E-003   1.3463331512477972E-003
  0.13384411764705881        2.7315126050420167E-003   1.4037106837101426E-003
  0.13566512605042014        2.7315126050420167E-003   1.4687204043182143E-003
  0.13748613445378155        2.7315126050420167E-003   1.5418746566286359E-003
  0.13930714285714288        2.7315126050420167E-003   1.6236839948241945E-003
  0.14112815126050424        2.7315126050420167E-003   1.7146461429690650E-003
  0.14294915966386559        2.7315126050420162E-003   1.8152321078108190E-003
  0.14477016806722698        2.7315126050420167E-003   1.9258691415543810E-003
  0.14659117647058831        2.7315126050420167E-003   2.0469203081715658E-003
  0.14841218487394967        2.7315126050420167E-003   2.1786604940618416E-003
  0.15023319327731102        2.7315126050420167E-003   2.3212488256986754E-003
  0.15205420168067238        2.7315126050420167E-003   2.4746976163934130E-003
  0.15387521008403374        2.7315126050420167E-003   2.6388381623949214E-003
  0.15569621848739509        2.7315126050420167E-003   2.8132839431748657E-003
  0.15751722689075645        2.7315126050420167E-003   2.9973920459308678E-003
  0.15933823529411781        2.7315126050420171E-003   3.1902239194375594E-003
  0.16115924369747917        2.7315126050420167E-003   3.3905068517531205E-003
  0.16298025210084052        2.7315126050420162E-003   3.5965978392579817E-003
  0.16480126050420188        2.7315126050420167E-003   3.8064517465178529E-003
  0.16662226890756324        2.7315126050420167E-003   4.0175958212640200E-003
  0.16844327731092459        2.7315126050420167E-003   4.2271127006964296E-003
  0.17026428571428595        2.7315126050420167E-003   4.4316340234360919E-003
  0.17208529411764734        2.7315126050420167E-003   4.6273466119376126E-003
  0.17390630252100869        2.7315126050420167E-003   4.8100130959169594E-003
  0.17572731092437002        2.7315126050420167E-003   4.9750089784292876E-003
  0.17754831932773138        2.7315126050420167E-003   5.1173777102771221E-003
  0.17936932773109276        2.7315126050420167E-003   5.2319073791752910E-003
  0.18119033613445409        2.7315126050420167E-003   5.3132717836853090E-003
  0.18301134453781545        2.7315126050420167E-003   5.3560152586352612E-003
  0.18483235294117678        2.7315126050420167E-003   5.3552638273160506E-003
  0.18665336134453817        2.7315126050420167E-003   5.3064439634746292E-003
  0.18847436974789952        2.7315126050420167E-003   5.2035549621109040E-003
  0.19029537815126088        2.7315126050420167E-003   5.0437634516109992E-003
  0.19211638655462224        2.7315126050420167E-003   4.8253712521989451E-003
  0.19393739495798359        2.7315126050420167E-003   4.5488364998761167E-003
  0.19575840336134498        2.7315126050420167E-003   4.2168574171702264E-003
  0.19757941176470634        2.7315126050420167E-003   3.8346191466713036E-003
  0.19940042016806767        2.7315126050420167E-003   3.4099105561764490E-003
  0.20122142857142905        2.7315126050420167E-003   2.9531456743820727E-003
  0.20304243697479038        2.7315126050420167E-003   2.4771893025113687E-003
  0.20486344537815174        2.7315126050420167E-003   1.9971591714750304E-003
  0.20668445378151312        2.7315126050420167E-003   1.5296054390708685E-003
  0.20850546218487448        2.7315126050420167E-003   1.0928407689702968E-003
  0.21032647058823584        2.7315126050420167E-003   7.0349911675257918E-004
  0.21214747899159717        2.7315126050420167E-003   3.8266546713327127E-004
  0.21396848739495852        2.7315126050420167E-003   1.3885686315526298E-004
  0.21578949579831988        2.7315126050420167E-003   4.4457015074249484E-005
  0.21670000000000000        2.7315126050420167E-003   0.0000000000000000     
   2.7876151404961289E-019   4.5525210084033617E-003   0.0000000000000000     
   9.1050420168067121E-004   4.5525210084033617E-003   1.3015140583804345E-003
   2.7315126050420154E-003   4.5525210084033617E-003   2.2519578482245151E-003
   4.5525210084033626E-003   4.5525210084033617E-003   2.8518976837432217E-003
   6.3735294117647058E-003   4.5525210084033617E-003   3.4155125706853201E-003
   8.1945378151260535E-003   4.5525210084033617E-003   3.9382245839317646E-003
   1.0015546218487397E-002   4.5525210084033617E-003   4.3018921802824659E-003
   1.1836554621848742E-002   4.5525210084033617E-003   4.4942377920788668E-003
   1.3657563025210085E-002   4.5525210084033617E-003   4.5380008447865770E-003
   1.5478571428571430E-002   4.5525210084033617E-003   4.4753994041998478E-003
   1.7299579831932775E-002   4.5525210084033617E-003   4.3436134950850759E-003
   1.9120588235294118E-002   4.5525210084033617E-003   4.1730963081714218E-003
   2.0941596638655462E-002   4.5525210084033617E-003   3.9860089114789003E-003
   2.2762605042016805E-002   4.5525210084033617E-003   3.7975888400656401E-003
   2.4583613445378148E-002   4.5525210084033617E-003   3.6174523492575566E-003