 title=Umag
 variables=x,y,Umag
 zone i=          21 ,j=          21
 
   0.0000000000000000        0.0000000000000000        0.0000000000000000     
   1.3157894736842105E-003   0.0000000000000000        0.0000000000000000     
   3.9473684210526317E-003   0.0000000000000000        0.0000000000000000     
   6.5789473684210523E-003   0.0000000000000000        0.0000000000000000     
   9.2105263157894728E-003   0.0000000000000000        0.0000000000000000     
   1.1842105263157893E-002   0.0000000000000000        0.0000000000000000     
   1.4473684210526314E-002   0.0000000000000000        0.0000000000000000     
   1.7105263157894735E-002   0.0000000000000000        0.0000000000000000     
   1.9736842105263157E-002   0.0000000000000000        0.0000000000000000     
   2.2368421052631579E-002   0.0000000000000000        0.0000000000000000     
   2.5000000000000001E-002   0.0000000000000000        0.0000000000000000     
   2.7631578947368424E-002   0.0000000000000000        0.0000000000000000     
   3.0263157894736846E-002   0.0000000000000000        0.0000000000000000     
   3.2894736842105268E-002   0.0000000000000000        0.0000000000000000     
   3.5526315789473691E-002   0.0000000000000000        0.0000000000000000     
   3.8157894736842113E-002   0.0000000000000000        0.0000000000000000     
   4.0789473684210535E-002   0.0000000000000000        0.0000000000000000     
   4.3421052631578957E-002   0.0000000000000000        0.0000000000000000     
   4.6052631578947380E-002   0.0000000000000000        0.0000000000000000     
   4.8684210526315802E-002   0.0000000000000000        0.0000000000000000     
   5.0000000000000003E-002   0.0000000000000000        0.0000000000000000     
   0.0000000000000000        1.3157894736842105E-003   0.0000000000000000     
   1.3157894736842105E-003   1.3157894736842105E-003   9131911.2203638460     
   3.9473684210526317E-003   1.3157894736842105E-003   490797691.96153492     
   6.5789473684210523E-003   1.3157894736842105E-003   996318025.83550417     
   9.2105263157894728E-003   1.3157894736842105E-003   349868366960782.38     
   1.1842105263157893E-002   1.3157894736842105E-003   2.7018581336654935E+023
   1.4473684210526314E-002   1.3157894736842105E-003   3.5533658478987562E+044
   1.7105263157894735E-002   1.3157894736842105E-003   6.3856213602844766E+045
   1.9736842105263157E-002   1.3157894736842105E-003   1.0639807523139887E+044
   2.2368421052631579E-002   1.3157894736842105E-003   2.5316963669183750E+043
   2.5000000000000001E-002   1.3157894736842105E-003   2.6957936144574592E+035
   2.7631578947368424E-002   1.3157894736842105E-003   6.2955376655557275E+031
   3.0263157894736846E-002   1.3157894736842105E-003   1.3825683734703313E+032
   3.2894736842105268E-002   1.3157894736842105E-003   3.5100939104394778E+036
   3.5526315789473691E-002   1.3157894736842105E-003   4.6353117066983326E+037
   3.8157894736842113E-002   1.3157894736842105E-003   1.5120327999578685E+039
   4.0789473684210535E-002   1.3157894736842105E-003   1.9200002251212198E+040
   4.3421052631578957E-002   1.3157894736842105E-003   1.9266121350976422E+042
   4.6052631578947380E-002   1.3157894736842105E-003   1.1620368132445724E+072
   4.8684210526315802E-002   1.3157894736842105E-003   2.1849182024575390E+034
   5.0000000000000003E-002   1.3157894736842105E-003   0.0000000000000000     
   0.0000000000000000        3.9473684210526317E-003   0.0000000000000000     
   1.3157894736842105E-003   3.9473684210526317E-003   260526055.10487267     
   3.9473684210526317E-003   3.9473684210526317E-003   543582439.14072931     
   6.5789473684210523E-003   3.9473684210526317E-003   611682728100599.62     
   9.2105263157894728E-003   3.9473684210526317E-003   2.2729885526411895E+019
   1.1842105263157893E-002   3.9473684210526317E-003   1.0902472291672101E+039
   1.4473684210526314E-002   3.9473684210526317E-003   1.6669931872387239E+046
   1.7105263157894735E-002   3.9473684210526317E-003   7.0172575457430524E+045
   1.9736842105263157E-002   3.9473684210526317E-003   1.0015962842720167E+046
   2.2368421052631579E-002   3.9473684210526317E-003   4.0785322831380049E+033
   2.5000000000000001E-002   3.9473684210526317E-003   8.5741915243060686E+037
   2.7631578947368424E-002   3.9473684210526317E-003   4.1642728010863738E+064
   3.0263157894736846E-002   3.9473684210526317E-003   6.1811674028095816E+031
   3.2894736842105268E-002   3.9473684210526317E-003   2.1733408468705565E+032
   3.5526315789473691E-002   3.9473684210526317E-003   6.0721721324023245E+032
   3.8157894736842113E-002   3.9473684210526317E-003   3.1832475824118545E+033
   4.0789473684210535E-002   3.9473684210526317E-003   6.8939005242183588E+033
   4.3421052631578957E-002   3.9473684210526317E-003   1.5272068466459635E+036
   4.6052631578947380E-002   3.9473684210526317E-003   2.2699999607014502E+035
   4.8684210526315802E-002   3.9473684210526317E-003   3.2004030541482283E+072
   5.0000000000000003E-002   3.9473684210526317E-003   0.0000000000000000     
   0.0000000000000000        6.5789473684210523E-003   0.0000000000000000     
   1.3157894736842105E-003   6.5789473684210523E-003   360362836.35600615     
   3.9473684210526317E-003   6.5789473684210523E-003   325811300103644.19     
   6.5789473684210523E-003   6.5789473684210523E-003   1.9453448845580177E+019
   9.2105263157894728E-003   6.5789473684210523E-003   2.4875225682408673E+036
   1.1842105263157893E-002   6.5789473684210523E-003   1.0071376378509608E+045
   1.4473684210526314E-002   6.5789473684210523E-003   4.2319854302333858E+040
   1.7105263157894735E-002   6.5789473684210523E-003   5.7466740316885702E+045
   1.9736842105263157E-002   6.5789473684210523E-003   5.1040984448249829E+034
   2.2368421052631579E-002   6.5789473684210523E-003   2.3394503991723063E+034
   2.5000000000000001E-002   6.5789473684210523E-003   1.4769258111784282E+034
   2.7631578947368424E-002   6.5789473684210523E-003   8.1541133424120823E+033
   3.0263157894736846E-002   6.5789473684210523E-003   2.2316762195876443E+033
   3.2894736842105268E-002   6.5789473684210523E-003   5.9760405222789067E+032
   3.5526315789473691E-002   6.5789473684210523E-003   6.6649309731273500E+032
   3.8157894736842113E-002   6.5789473684210523E-003   8.7659946858964606E+032
   4.0789473684210535E-002   6.5789473684210523E-003   2.1328296074259181E+033
   4.3421052631578957E-002   6.5789473684210523E-003   8.0487297922340822E+052
   4.6052631578947380E-002   6.5789473684210523E-003   1.3688184666604097E+053
   4.8684210526315802E-002   6.5789473684210523E-003   7.5986672487803216E+054
   5.0000000000000003E-002   6.5789473684210523E-003   0.0000000000000000     
   0.0000000000000000        9.2105263157894728E-003   0.0000000000000000     
   1.3157894736842105E-003   9.2105263157894728E-003   65387925778070.164     
   3.9473684210526317E-003   9.2105263157894728E-003   1.4835081485518355E+017
   6.5789473684210523E-003   9.2105263157894728E-003   1.2453286768265531E+036
   9.2105263157894728E-003   9.2105263157894728E-003   3.0101120106646620E+046
   1.1842105263157893E-002   9.2105263157894728E-003   2.3190202406284038E+053
   1.4473684210526314E-002   9.2105263157894728E-003   7.3708866024711779E+047
   1.7105263157894735E-002   9.2105263157894728E-003   6.0792242056008164E+034
   1.9736842105263157E-002   9.2105263157894728E-003   2.2743093914266330E+034
   2.2368421052631579E-002   9.2105263157894728E-003   3.1579436093828960E+034
   2.5000000000000001E-002   9.2105263157894728E-003   3.0392528264826758E+039
   2.7631578947368424E-002   9.2105263157894728E-003   2.0006770612546233E+040
   3.0263157894736846E-002   9.2105263157894728E-003   2.7129683043119438E+039
   3.2894736842105268E-002   9.2105263157894728E-003   6.0233709887653356E+038
   3.5526315789473691E-002   9.2105263157894728E-003   1.6424933066320171E+038
   3.8157894736842113E-002   9.2105263157894728E-003   4.9149605025866969E+086
   4.0789473684210535E-002   9.2105263157894728E-003   2.5873216278035079E+150
   4.3421052631578957E-002   9.2105263157894728E-003                  Infinity
   4.6052631578947380E-002   9.2105263157894728E-003                  Infinity
   4.8684210526315802E-002   9.2105263157894728E-003                  Infinity
   5.0000000000000003E-002   9.2105263157894728E-003   0.0000000000000000     
   0.0000000000000000        1.1842105263157893E-002   0.0000000000000000     
   1.3157894736842105E-003   1.1842105263157893E-002   1.1651492780204257E+018
   3.9473684210526317E-003   1.1842105263157893E-002   1.7935833347509601E+044
   6.5789473684210523E-003   1.1842105263157893E-002   1.9023196665645185E+048
   9.2105263157894728E-003   1.1842105263157893E-002   8.9484037598784818E+041
   1.1842105263157893E-002   1.1842105263157893E-002   3.3975706651630763E+048
   1.4473684210526314E-002   1.1842105263157893E-002   3.9431831371429452E+034
   1.7105263157894735E-002   1.1842105263157893E-002   1.3652247776586582E+034
   1.9736842105263157E-002   1.1842105263157893E-002   1.0585047418363614E+034
   2.2368421052631579E-002   1.1842105263157893E-002   1.4374646469260193E+034
   2.5000000000000001E-002   1.1842105263157893E-002   6.0231430754463273E+038
   2.7631578947368424E-002   1.1842105263157893E-002   2.7545042724316203E+039
   3.0263157894736846E-002   1.1842105263157893E-002   9.7099272397928906E+038
   3.2894736842105268E-002   1.1842105263157893E-002   3.9169307510554858E+038
   3.5526315789473691E-002   1.1842105263157893E-002   2.8391354270276653E+102
   3.8157894736842113E-002   1.1842105263157893E-002                  Infinity
   4.0789473684210535E-002   1.1842105263157893E-002                  Infinity
   4.3421052631578957E-002   1.1842105263157893E-002                  Infinity
   4.6052631578947380E-002   1.1842105263157893E-002                  Infinity
   4.8684210526315802E-002   1.1842105263157893E-002                  Infinity
   5.0000000000000003E-002   1.1842105263157893E-002   0.0000000000000000     
   0.0000000000000000        1.4473684210526314E-002   0.0000000000000000     
   1.3157894736842105E-003   1.4473684210526314E-002   2.6840208221450093E+041
   3.9473684210526317E-003   1.4473684210526314E-002   1.2092575712895484E+045
   6.5789473684210523E-003   1.4473684210526314E-002   2.5881713743268160E+047
   9.2105263157894728E-003   1.4473684210526314E-002   8.8532499590900150E+045
   1.1842105263157893E-002   1.4473684210526314E-002   2.7813619511274567E+034
   1.4473684210526314E-002   1.4473684210526314E-002   2.1550263902284118E+034
   1.7105263157894735E-002   1.4473684210526314E-002   4.3491144065492950E+034
   1.9736842105263157E-002   1.4473684210526314E-002   2.4744288443786472E+034
   2.2368421052631579E-002   1.4473684210526314E-002   9.1441415575326112E+033
   2.5000000000000001E-002   1.4473684210526314E-002   1.6801011629008258E+038
   2.7631578947368424E-002   1.4473684210526314E-002   1.0334811644445857E+039
   3.0263157894736846E-002   1.4473684210526314E-002   5.6087114342251395E+038
   3.2894736842105268E-002   1.4473684210526314E-002   2.5019739271669524E+118
   3.5526315789473691E-002   1.4473684210526314E-002                  Infinity
   3.8157894736842113E-002   1.4473684210526314E-002                  Infinity
   4.0789473684210535E-002   1.4473684210526314E-002                  Infinity
   4.3421052631578957E-002   1.4473684210526314E-002                  Infinity
   4.6052631578947380E-002   1.4473684210526314E-002                  Infinity
   4.8684210526315802E-002   1.4473684210526314E-002                  Infinity
   5.0000000000000003E-002   1.4473684210526314E-002   0.0000000000000000     
   0.0000000000000000        1.7105263157894735E-002   0.0000000000000000     
   1.3157894736842105E-003   1.7105263157894735E-002   1.2565021609848350E+042
   3.9473684210526317E-003   1.7105263157894735E-002   3.8563745271413528E+043
   6.5789473684210523E-003   1.7105263157894735E-002   4.3393127607953967E+045
   9.2105263157894728E-003   1.7105263157894735E-002   6.2362160660744837E+033
   1.1842105263157893E-002   1.7105263157894735E-002   2.9183541412351124E+033
   1.4473684210526314E-002   1.7105263157894735E-002   1.0966872212538975E+034
   1.7105263157894735E-002   1.7105263157894735E-002   3.5898931576814780E+034
   1.9736842105263157E-002   1.7105263157894735E-002   1.3336030217041083E+034
   2.2368421052631579E-002   1.7105263157894735E-002   6.4347372210538196E+033
   2.5000000000000001E-002   1.7105263157894735E-002   5.2032214815860529E+037
   2.7631578947368424E-002   1.7105263157894735E-002   3.3030419432477736E+038
   3.0263157894736846E-002   1.7105263157894735E-002   3.1744788726626522E+129
   3.2894736842105268E-002   1.7105263157894735E-002                  Infinity
   3.5526315789473691E-002   1.7105263157894735E-002                  Infinity
   3.8157894736842113E-002   1.7105263157894735E-002                       NaN
   4.0789473684210535E-002   1.7105263157894735E-002                       NaN
   4.3421052631578957E-002   1.7105263157894735E-002                       NaN
   4.6052631578947380E-002   1.7105263157894735E-002                       NaN
   4.8684210526315802E-002   1.7105263157894735E-002                       NaN
   5.0000000000000003E-002   1.7105263157894735E-002   0.0000000000000000     
   0.0000000000000000        1.9736842105263157E-002   0.0000000000000000     
   1.3157894736842105E-003   1.9736842105263157E-002   7.3898410293012120E+042
   3.9473684210526317E-003   1.9736842105263157E-002   1.4987789880568761E+043
   6.5789473684210523E-003   1.9736842105263157E-002   1.1050504809987142E+044
   9.2105263157894728E-003   1.9736842105263157E-002   1.5401804385178239E+033
   1.1842105263157893E-002   1.9736842105263157E-002   5.2541208677624239E+033
   1.4473684210526314E-002   1.9736842105263157E-002   2.1917476958280953E+034
   1.7105263157894735E-002   1.9736842105263157E-002   1.1385897976872939E+034
   1.9736842105263157E-002   1.9736842105263157E-002   7.0172619121048724E+033
   2.2368421052631579E-002   1.9736842105263157E-002   5.0532822588781806E+033
   2.5000000000000001E-002   1.9736842105263157E-002   1.2549487746180946E+037
   2.7631578947368424E-002   1.9736842105263157E-002   8.0952848085296943E+131
   3.0263157894736846E-002   1.9736842105263157E-002                  Infinity
   3.2894736842105268E-002   1.9736842105263157E-002                  Infinity
   3.5526315789473691E-002   1.9736842105263157E-002                       NaN
   3.8157894736842113E-002   1.9736842105263157E-002                       NaN
   4.0789473684210535E-002   1.9736842105263157E-002                       NaN
   4.3421052631578957E-002   1.9736842105263157E-002                       NaN
   4.6052631578947380E-002   1.9736842105263157E-002                       NaN
   4.8684210526315802E-002   1.9736842105263157E-002                       NaN
   5.0000000000000003E-002   1.9736842105263157E-002   0.0000000000000000     
   0.0000000000000000        2.2368421052631579E-002   0.0000000000000000     
   1.3157894736842105E-003   2.2368421052631579E-002   1.0685970586053747E+043
   3.9473684210526317E-003   2.2368421052631579E-002   9.7627047463092278E+042
   6.5789473684210523E-003   2.2368421052631579E-002   1.0232739968951477E+044
   9.2105263157894728E-003   2.2368421052631579E-002   8.9111463352815578E+032
   1.1842105263157893E-002   2.2368421052631579E-002   5.0133586769556529E+033
   1.4473684210526314E-002   2.2368421052631579E-002   3.4585599930774284E+034
   1.7105263157894735E-002   2.2368421052631579E-002   3.3921687040806782E+034
   1.9736842105263157E-002   2.2368421052631579E-002   5.3164227405545743E+033
   2.2368421052631579E-002   2.2368421052631579E-002   5.2587122607558283E+033
   2.5000000000000001E-002   2.2368421052631579E-002   1.4116940926373041E+133
   2.7631578947368424E-002   2.2368421052631579E-002                  Infinity
   3.0263157894736846E-002   2.2368421052631579E-002                  Infinity
   3.2894736842105268E-002   2.2368421052631579E-002                       NaN
   3.5526315789473691E-002   2.2368421052631579E-002                       NaN
   3.8157894736842113E-002   2.2368421052631579E-002                       NaN
   4.0789473684210535E-002   2.2368421052631579E-002                       NaN
   4.3421052631578957E-002   2.2368421052631579E-002                       NaN
   4.6052631578947380E-002   2.2368421052631579E-002                       NaN
   4.8684210526315802E-002   2.2368421052631579E-002                       NaN
   5.0000000000000003E-002   2.2368421052631579E-002   0.0000000000000000     
   0.0000000000000000        2.5000000000000001E-002   0.0000000000000000     
   1.3157894736842105E-003   2.5000000000000001E-002   2.2313500447774678E+075
   3.9473684210526317E-003   2.5000000000000001E-002   9.5727718299215774E+063
   6.5789473684210523E-003   2.5000000000000001E-002   3.7183481028755417E+056
   9.2105263157894728E-003   2.5000000000000001E-002   1.3227377413598755E+063
   1.1842105263157893E-002   2.5000000000000001E-002   2.1495901109837475E+076
   1.4473684210526314E-002   2.5000000000000001E-002   1.7306030749095753E+072
   1.7105263157894735E-002   2.5000000000000001E-002   6.4326874798053854E+081
   1.9736842105263157E-002   2.5000000000000001E-002   1.2611532390584984E+081
   2.2368421052631579E-002   2.5000000000000001E-002   2.2372580815855514E+131
   2.5000000000000001E-002   2.5000000000000001E-002                  Infinity
   2.7631578947368424E-002   2.5000000000000001E-002                  Infinity
   3.0263157894736846E-002   2.5000000000000001E-002                       NaN
   3.2894736842105268E-002   2.5000000000000001E-002                       NaN
   3.5526315789473691E-002   2.5000000000000001E-002                       NaN
   3.8157894736842113E-002   2.5000000000000001E-002                       NaN
   4.0789473684210535E-002   2.5000000000000001E-002                       NaN
   4.3421052631578957E-002   2.5000000000000001E-002                       NaN
   4.6052631578947380E-002   2.5000000000000001E-002                       NaN
   4.8684210526315802E-002   2.5000000000000001E-002                       NaN
   5.0000000000000003E-002   2.5000000000000001E-002   0.0000000000000000     
   0.0000000000000000        2.7631578947368424E-002   0.0000000000000000     
   1.3157894736842105E-003   2.7631578947368424E-002   9.2356151059601289E+144
   3.9473684210526317E-003   2.7631578947368424E-002   1.5435938564892159E+123
   6.5789473684210523E-003   2.7631578947368424E-002   1.1776051206270049E+112
   9.2105263157894728E-003   2.7631578947368424E-002   1.4704131861032015E+110
   1.1842105263157893E-002   2.7631578947368424E-002   1.1999829701898693E+107
   1.4473684210526314E-002   2.7631578947368424E-002   3.6785784166270848E+105
   1.7105263157894735E-002   2.7631578947368424E-002   3.3596335052877787E+111
   1.9736842105263157E-002   2.7631578947368424E-002   5.0710459616431584E+129
   2.2368421052631579E-002   2.7631578947368424E-002                  Infinity
   2.5000000000000001E-002   2.7631578947368424E-002                  Infinity
   2.7631578947368424E-002   2.7631578947368424E-002                       NaN
   3.0263157894736846E-002   2.7631578947368424E-002                       NaN
   3.2894736842105268E-002   2.7631578947368424E-002                       NaN
   3.5526315789473691E-002   2.7631578947368424E-002                       NaN
   3.8157894736842113E-002   2.7631578947368424E-002                       NaN
   4.0789473684210535E-002   2.7631578947368424E-002                       NaN
   4.3421052631578957E-002   2.7631578947368424E-002                       NaN
   4.6052631578947380E-002   2.7631578947368424E-002                       NaN
   4.8684210526315802E-002   2.7631578947368424E-002                       NaN
   5.0000000000000003E-002   2.7631578947368424E-002   0.0000000000000000     
   0.0000000000000000        3.0263157894736846E-002   0.0000000000000000     
   1.3157894736842105E-003   3.0263157894736846E-002                  Infinity
   3.9473684210526317E-003   3.0263157894736846E-002                  Infinity
   6.5789473684210523E-003   3.0263157894736846E-002                  Infinity
   9.2105263157894728E-003   3.0263157894736846E-002                  Infinity
   1.1842105263157893E-002   3.0263157894736846E-002                  Infinity
   1.4473684210526314E-002   3.0263157894736846E-002                  Infinity
   1.7105263157894735E-002   3.0263157894736846E-002                  Infinity
   1.9736842105263157E-002   3.0263157894736846E-002                  Infinity
   2.2368421052631579E-002   3.0263157894736846E-002                       NaN
   2.5000000000000001E-002   3.0263157894736846E-002                       NaN
   2.7631578947368424E-002   3.0263157894736846E-002                       NaN
   3.0263157894736846E-002   3.0263157894736846E-002                       NaN
   3.2894736842105268E-002   3.0263157894736846E-002                       NaN
   3.5526315789473691E-002   3.0263157894736846E-002                       NaN
   3.8157894736842113E-002   3.0263157894736846E-002                       NaN
   4.0789473684210535E-002   3.0263157894736846E-002                       NaN
   4.3421052631578957E-002   3.0263157894736846E-002                       NaN
   4.6052631578947380E-002   3.0263157894736846E-002                       NaN
   4.8684210526315802E-002   3.0263157894736846E-002                       NaN
   5.0000000000000003E-002   3.0263157894736846E-002   0.0000000000000000     
   0.0000000000000000        3.2894736842105268E-002   0.0000000000000000     
   1.3157894736842105E-003   3.2894736842105268E-002                       NaN
   3.9473684210526317E-003   3.2894736842105268E-002                       NaN
   6.5789473684210523E-003   3.2894736842105268E-002                       NaN
   9.2105263157894728E-003   3.2894736842105268E-002                       NaN
   1.1842105263157893E-002   3.2894736842105268E-002                       NaN
   1.4473684210526314E-002   3.2894736842105268E-002                       NaN
   1.7105263157894735E-002   3.2894736842105268E-002                       NaN
   1.9736842105263157E-002   3.2894736842105268E-002                       NaN
   2.2368421052631579E-002   3.2894736842105268E-002                       NaN
   2.5000000000000001E-002   3.2894736842105268E-002                       NaN
   2.7631578947368424E-002   3.2894736842105268E-002                       NaN
   3.0263157894736846E-002   3.2894736842105268E-002                       NaN
   3.2894736842105268E-002   3.2894736842105268E-002                       NaN
   3.5526315789473691E-002   3.2894736842105268E-002                       NaN
   3.8157894736842113E-002   3.2894736842105268E-002                       NaN
   4.0789473684210535E-002   3.2894736842105268E-002                       NaN
   4.3421052631578957E-002   3.2894736842105268E-002                       NaN
   4.6052631578947380E-002   3.2894736842105268E-002                       NaN
   4.8684210526315802E-002   3.2894736842105268E-002                       NaN
   5.0000000000000003E-002   3.2894736842105268E-002   0.0000000000000000     
   0.0000000000000000        3.5526315789473691E-002   0.0000000000000000     
   1.3157894736842105E-003   3.5526315789473691E-002                       NaN
   3.9473684210526317E-003   3.5526315789473691E-002                       NaN
   6.5789473684210523E-003   3.5526315789473691E-002                       NaN
   9.2105263157894728E-003   3.5526315789473691E-002                       NaN
   1.1842105263157893E-002   3.5526315789473691E-002                       NaN
   1.4473684210526314E-002   3.5526315789473691E-002                       NaN
   1.7105263157894735E-002   3.5526315789473691E-002                       NaN
   1.9736842105263157E-002   3.5526315789473691E-002                       NaN
   2.2368421052631579E-002   3.5526315789473691E-002                       NaN
   2.5000000000000001E-002   3.5526315789473691E-002                       NaN
   2.7631578947368424E-002   3.5526315789473691E-002                       NaN
   3.0263157894736846E-002   3.5526315789473691E-002                       NaN
   3.2894736842105268E-002   3.5526315789473691E-002                       NaN
   3.5526315789473691E-002   3.5526315789473691E-002                       NaN
   3.8157894736842113E-002   3.5526315789473691E-002                       NaN
   4.0789473684210535E-002   3.5526315789473691E-002                       NaN
   4.3421052631578957E-002   3.5526315789473691E-002                       NaN
   4.6052631578947380E-002   3.5526315789473691E-002                       NaN
   4.8684210526315802E-002   3.5526315789473691E-002                       NaN
   5.0000000000000003E-002   3.5526315789473691E-002   0.0000000000000000     
   0.0000000000000000        3.8157894736842113E-002   0.0000000000000000     
   1.3157894736842105E-003   3.8157894736842113E-002                       NaN
   3.9473684210526317E-003   3.8157894736842113E-002                       NaN
   6.5789473684210523E-003   3.8157894736842113E-002                       NaN
   9.2105263157894728E-003   3.8157894736842113E-002                       NaN
   1.1842105263157893E-002   3.8157894736842113E-002                       NaN
   1.4473684210526314E-002   3.8157894736842113E-002                       NaN
   1.7105263157894735E-002   3.8157894736842113E-002                       NaN
   1.9736842105263157E-002   3.8157894736842113E-002                       NaN
   2.2368421052631579E-002   3.8157894736842113E-002                       NaN
   2.5000000000000001E-002   3.8157894736842113E-002                       NaN
   2.7631578947368424E-002   3.8157894736842113E-002                       NaN
   3.0263157894736846E-002   3.8157894736842113E-002                       NaN
   3.2894736842105268E-002   3.8157894736842113E-002                       NaN
   3.5526315789473691E-002   3.8157894736842113E-002                       NaN
   3.8157894736842113E-002   3.8157894736842113E-002                       NaN
   4.0789473684210535E-002   3.8157894736842113E-002                       NaN
   4.3421052631578957E-002   3.8157894736842113E-002                       NaN
   4.6052631578947380E-002   3.8157894736842113E-002                       NaN
   4.8684210526315802E-002   3.8157894736842113E-002                       NaN
   5.0000000000000003E-002   3.8157894736842113E-002   0.0000000000000000     
   0.0000000000000000        4.0789473684210535E-002   0.0000000000000000     
   1.3157894736842105E-003   4.0789473684210535E-002                       NaN
   3.9473684210526317E-003   4.0789473684210535E-002                       NaN
   6.5789473684210523E-003   4.0789473684210535E-002                       NaN
   9.2105263157894728E-003   4.0789473684210535E-002                       NaN
   1.1842105263157893E-002   4.0789473684210535E-002                       NaN
   1.4473684210526314E-002   4.0789473684210535E-002                       NaN
   1.7105263157894735E-002   4.0789473684210535E-002                       NaN
   1.9736842105263157E-002   4.0789473684210535E-002                       NaN
   2.2368421052631579E-002   4.0789473684210535E-002                       NaN
   2.5000000000000001E-002   4.0789473684210535E-002                       NaN
   2.7631578947368424E-002   4.0789473684210535E-002                       NaN
   3.0263157894736846E-002   4.0789473684210535E-002                       NaN
   3.2894736842105268E-002   4.0789473684210535E-002                       NaN
   3.5526315789473691E-002   4.0789473684210535E-002                       NaN
   3.8157894736842113E-002   4.0789473684210535E-002                       NaN
   4.0789473684210535E-002   4.0789473684210535E-002                       NaN
   4.3421052631578957E-002   4.0789473684210535E-002                       NaN
   4.6052631578947380E-002   4.0789473684210535E-002                       NaN
   4.8684210526315802E-002   4.0789473684210535E-002                       NaN
   5.0000000000000003E-002   4.0789473684210535E-002   0.0000000000000000     
   0.0000000000000000        4.3421052631578957E-002   0.0000000000000000     
   1.3157894736842105E-003   4.3421052631578957E-002                       NaN
   3.9473684210526317E-003   4.3421052631578957E-002                       NaN
   6.5789473684210523E-003   4.3421052631578957E-002                       NaN
   9.2105263157894728E-003   4.3421052631578957E-002                       NaN
   1.1842105263157893E-002   4.3421052631578957E-002                       NaN
   1.4473684210526314E-002   4.3421052631578957E-002                       NaN
   1.7105263157894735E-002   4.3421052631578957E-002                       NaN
   1.9736842105263157E-002   4.3421052631578957E-002                       NaN
   2.2368421052631579E-002   4.3421052631578957E-002                       NaN
   2.5000000000000001E-002   4.3421052631578957E-002                       NaN
   2.7631578947368424E-002   4.3421052631578957E-002                       NaN
   3.0263157894736846E-002   4.3421052631578957E-002                       NaN
   3.2894736842105268E-002   4.3421052631578957E-002                       NaN
   3.5526315789473691E-002   4.3421052631578957E-002                       NaN
   3.8157894736842113E-002   4.3421052631578957E-002                       NaN
   4.0789473684210535E-002   4.3421052631578957E-002                       NaN
   4.3421052631578957E-002   4.3421052631578957E-002                       NaN
   4.6052631578947380E-002   4.3421052631578957E-002                       NaN
   4.8684210526315802E-002   4.3421052631578957E-002                       NaN
   5.0000000000000003E-002   4.3421052631578957E-002   0.0000000000000000     