 title=Umag
 variables=x,y,Umag
 zone i=         161 ,j=         161
 
   0.0000000000000000        0.0000000000000000        0.0000000000000000     
   6.8144654088050319E-004   0.0000000000000000        0.0000000000000000     
   2.0443396226415096E-003   0.0000000000000000        0.0000000000000000     
   3.4072327044025160E-003   0.0000000000000000        0.0000000000000000     
   4.7701257861635224E-003   0.0000000000000000        0.0000000000000000     
   6.1330188679245288E-003   0.0000000000000000        0.0000000000000000     
   7.4959119496855351E-003   0.0000000000000000        0.0000000000000000     
   8.8588050314465407E-003   0.0000000000000000        0.0000000000000000     
   1.0221698113207547E-002   0.0000000000000000        0.0000000000000000     
   1.1584591194968553E-002   0.0000000000000000        0.0000000000000000     
   1.2947484276729560E-002   0.0000000000000000        0.0000000000000000     
   1.4310377358490566E-002   0.0000000000000000        0.0000000000000000     
   1.5673270440251574E-002   0.0000000000000000        0.0000000000000000     
   1.7036163522012579E-002   0.0000000000000000        0.0000000000000000     
   1.8399056603773584E-002   0.0000000000000000        0.0000000000000000     
   1.9761949685534588E-002   0.0000000000000000        0.0000000000000000     
   2.1124842767295593E-002   0.0000000000000000        0.0000000000000000     
   2.2487735849056598E-002   0.0000000000000000        0.0000000000000000     
   2.3850628930817602E-002   0.0000000000000000        0.0000000000000000     
   2.5213522012578607E-002   0.0000000000000000        0.0000000000000000     
   2.6576415094339612E-002   0.0000000000000000        0.0000000000000000     
   2.7939308176100616E-002   0.0000000000000000        0.0000000000000000     
   2.9302201257861621E-002   0.0000000000000000        0.0000000000000000     
   3.0665094339622626E-002   0.0000000000000000        0.0000000000000000     
   3.2027987421383630E-002   0.0000000000000000        0.0000000000000000     
   3.3390880503144635E-002   0.0000000000000000        0.0000000000000000     
   3.4753773584905640E-002   0.0000000000000000        0.0000000000000000     
   3.6116666666666644E-002   0.0000000000000000        0.0000000000000000     
   3.7479559748427649E-002   0.0000000000000000        0.0000000000000000     
   3.8842452830188653E-002   0.0000000000000000        0.0000000000000000     
   4.0205345911949658E-002   0.0000000000000000        0.0000000000000000     
   4.1568238993710663E-002   0.0000000000000000        0.0000000000000000     
   4.2931132075471667E-002   0.0000000000000000        0.0000000000000000     
   4.4294025157232672E-002   0.0000000000000000        0.0000000000000000     
   4.5656918238993677E-002   0.0000000000000000        0.0000000000000000     
   4.7019811320754681E-002   0.0000000000000000        0.0000000000000000     
   4.8382704402515686E-002   0.0000000000000000        0.0000000000000000     
   4.9745597484276691E-002   0.0000000000000000        0.0000000000000000     
   5.1108490566037695E-002   0.0000000000000000        0.0000000000000000     
   5.2471383647798700E-002   0.0000000000000000        0.0000000000000000     
   5.3834276729559705E-002   0.0000000000000000        0.0000000000000000     
   5.5197169811320709E-002   0.0000000000000000        0.0000000000000000     
   5.6560062893081714E-002   0.0000000000000000        0.0000000000000000     
   5.7922955974842719E-002   0.0000000000000000        0.0000000000000000     
   5.9285849056603723E-002   0.0000000000000000        0.0000000000000000     
   6.0648742138364728E-002   0.0000000000000000        0.0000000000000000     
   6.2011635220125733E-002   0.0000000000000000        0.0000000000000000     
   6.3374528301886737E-002   0.0000000000000000        0.0000000000000000     
   6.4737421383647742E-002   0.0000000000000000        0.0000000000000000     
   6.6100314465408747E-002   0.0000000000000000        0.0000000000000000     
   6.7463207547169751E-002   0.0000000000000000        0.0000000000000000     
   6.8826100628930756E-002   0.0000000000000000        0.0000000000000000     
   7.0188993710691761E-002   0.0000000000000000        0.0000000000000000     
   7.1551886792452765E-002   0.0000000000000000        0.0000000000000000     
   7.2914779874213770E-002   0.0000000000000000        0.0000000000000000     
   7.4277672955974774E-002   0.0000000000000000        0.0000000000000000     
   7.5640566037735779E-002   0.0000000000000000        0.0000000000000000     
   7.7003459119496784E-002   0.0000000000000000        0.0000000000000000     
   7.8366352201257788E-002   0.0000000000000000        0.0000000000000000     
   7.9729245283018793E-002   0.0000000000000000        0.0000000000000000     
   8.1092138364779798E-002   0.0000000000000000        0.0000000000000000     
   8.2455031446540802E-002   0.0000000000000000        0.0000000000000000     
   8.3817924528301807E-002   0.0000000000000000        0.0000000000000000     
   8.5180817610062812E-002   0.0000000000000000        0.0000000000000000     
   8.6543710691823816E-002   0.0000000000000000        0.0000000000000000     
   8.7906603773584821E-002   0.0000000000000000        0.0000000000000000     
   8.9269496855345826E-002   0.0000000000000000        0.0000000000000000     
   9.0632389937106830E-002   0.0000000000000000        0.0000000000000000     
   9.1995283018867835E-002   0.0000000000000000        0.0000000000000000     
   9.3358176100628840E-002   0.0000000000000000        0.0000000000000000     
   9.4721069182389844E-002   0.0000000000000000        0.0000000000000000     
   9.6083962264150849E-002   0.0000000000000000        0.0000000000000000     
   9.7446855345911854E-002   0.0000000000000000        0.0000000000000000     
   9.8809748427672858E-002   0.0000000000000000        0.0000000000000000     
  0.10017264150943386        0.0000000000000000        0.0000000000000000     
  0.10153553459119487        0.0000000000000000        0.0000000000000000     
  0.10289842767295587        0.0000000000000000        0.0000000000000000     
  0.10426132075471688        0.0000000000000000        0.0000000000000000     
  0.10562421383647788        0.0000000000000000        0.0000000000000000     
  0.10698710691823889        0.0000000000000000        0.0000000000000000     
  0.10834999999999989        0.0000000000000000        0.0000000000000000     
  0.10971289308176090        0.0000000000000000        0.0000000000000000     
  0.11107578616352190        0.0000000000000000        0.0000000000000000     
  0.11243867924528290        0.0000000000000000        0.0000000000000000     
  0.11380157232704391        0.0000000000000000        0.0000000000000000     
  0.11516446540880491        0.0000000000000000        0.0000000000000000     
  0.11652735849056592        0.0000000000000000        0.0000000000000000     
  0.11789025157232692        0.0000000000000000        0.0000000000000000     
  0.11925314465408793        0.0000000000000000        0.0000000000000000     
  0.12061603773584893        0.0000000000000000        0.0000000000000000     
  0.12197893081760994        0.0000000000000000        0.0000000000000000     
  0.12334182389937094        0.0000000000000000        0.0000000000000000     
  0.12470471698113195        0.0000000000000000        0.0000000000000000     
  0.12606761006289297        0.0000000000000000        0.0000000000000000     
  0.12743050314465398        0.0000000000000000        0.0000000000000000     
  0.12879339622641500        0.0000000000000000        0.0000000000000000     
  0.13015628930817602        0.0000000000000000        0.0000000000000000     
  0.13151918238993704        0.0000000000000000        0.0000000000000000     
  0.13288207547169806        0.0000000000000000        0.0000000000000000     
  0.13424496855345908        0.0000000000000000        0.0000000000000000     
  0.13560786163522009        0.0000000000000000        0.0000000000000000     
  0.13697075471698111        0.0000000000000000        0.0000000000000000     
  0.13833364779874213        0.0000000000000000        0.0000000000000000     
  0.13969654088050315        0.0000000000000000        0.0000000000000000     
  0.14105943396226417        0.0000000000000000        0.0000000000000000     
  0.14242232704402519        0.0000000000000000        0.0000000000000000     
  0.14378522012578621        0.0000000000000000        0.0000000000000000     
  0.14514811320754722        0.0000000000000000        0.0000000000000000     
  0.14651100628930824        0.0000000000000000        0.0000000000000000     
  0.14787389937106926        0.0000000000000000        0.0000000000000000     
  0.14923679245283028        0.0000000000000000        0.0000000000000000     
  0.15059968553459130        0.0000000000000000        0.0000000000000000     
  0.15196257861635232        0.0000000000000000        0.0000000000000000     
  0.15332547169811334        0.0000000000000000        0.0000000000000000     
  0.15468836477987435        0.0000000000000000        0.0000000000000000     
  0.15605125786163537        0.0000000000000000        0.0000000000000000     
  0.15741415094339639        0.0000000000000000        0.0000000000000000     
  0.15877704402515741        0.0000000000000000        0.0000000000000000     
  0.16013993710691843        0.0000000000000000        0.0000000000000000     
  0.16150283018867945        0.0000000000000000        0.0000000000000000     
  0.16286572327044047        0.0000000000000000        0.0000000000000000     
  0.16422861635220148        0.0000000000000000        0.0000000000000000     
  0.16559150943396250        0.0000000000000000        0.0000000000000000     
  0.16695440251572352        0.0000000000000000        0.0000000000000000     
  0.16831729559748454        0.0000000000000000        0.0000000000000000     
  0.16968018867924556        0.0000000000000000        0.0000000000000000     
  0.17104308176100658        0.0000000000000000        0.0000000000000000     
  0.17240597484276760        0.0000000000000000        0.0000000000000000     
  0.17376886792452861        0.0000000000000000        0.0000000000000000     
  0.17513176100628963        0.0000000000000000        0.0000000000000000     
  0.17649465408805065        0.0000000000000000        0.0000000000000000     
  0.17785754716981167        0.0000000000000000        0.0000000000000000     
  0.17922044025157269        0.0000000000000000        0.0000000000000000     
  0.18058333333333371        0.0000000000000000        0.0000000000000000     
  0.18194622641509473        0.0000000000000000        0.0000000000000000     
  0.18330911949685574        0.0000000000000000        0.0000000000000000     
  0.18467201257861676        0.0000000000000000        0.0000000000000000     
  0.18603490566037778        0.0000000000000000        0.0000000000000000     
  0.18739779874213880        0.0000000000000000        0.0000000000000000     
  0.18876069182389982        0.0000000000000000        0.0000000000000000     
  0.19012358490566084        0.0000000000000000        0.0000000000000000     
  0.19148647798742185        0.0000000000000000        0.0000000000000000     
  0.19284937106918287        0.0000000000000000        0.0000000000000000     
  0.19421226415094389        0.0000000000000000        0.0000000000000000     
  0.19557515723270491        0.0000000000000000        0.0000000000000000     
  0.19693805031446593        0.0000000000000000        0.0000000000000000     
  0.19830094339622695        0.0000000000000000        0.0000000000000000     
  0.19966383647798797        0.0000000000000000        0.0000000000000000     
  0.20102672955974898        0.0000000000000000        0.0000000000000000     
  0.20238962264151000        0.0000000000000000        0.0000000000000000     
  0.20375251572327102        0.0000000000000000        0.0000000000000000     
  0.20511540880503204        0.0000000000000000        0.0000000000000000     
  0.20647830188679306        0.0000000000000000        0.0000000000000000     
  0.20784119496855408        0.0000000000000000        0.0000000000000000     
  0.20920408805031510        0.0000000000000000        0.0000000000000000     
  0.21056698113207611        0.0000000000000000        0.0000000000000000     
  0.21192987421383713        0.0000000000000000        0.0000000000000000     
  0.21329276729559815        0.0000000000000000        0.0000000000000000     
  0.21465566037735917        0.0000000000000000        0.0000000000000000     
  0.21601855345912019        0.0000000000000000        0.0000000000000000     
  0.21670000000000000        0.0000000000000000        0.0000000000000000     
   4.1726566253967213E-020   6.8144654088050319E-004   0.0000000000000000     
   6.8144654088050309E-004   6.8144654088050319E-004   1.9653891650651538E-004
   2.0443396226415092E-003   6.8144654088050319E-004   3.6995654634737409E-004
   3.4072327044025155E-003   6.8144654088050319E-004   6.2455711312909125E-004
   4.7701257861635224E-003   6.8144654088050319E-004   8.6276433523705613E-004
   6.1330188679245288E-003   6.8144654088050319E-004   1.0415844490637869E-003
   7.4959119496855351E-003   6.8144654088050319E-004   1.1552095799621188E-003
   8.8588050314465407E-003   6.8144654088050330E-004   1.2119924343673267E-003
   1.0221698113207547E-002   6.8144654088050330E-004   1.2249726148274092E-003
   1.1584591194968553E-002   6.8144654088050319E-004   1.2070118263452856E-003
   1.2947484276729562E-002   6.8144654088050319E-004   1.1680941811061517E-003
   1.4310377358490566E-002   6.8144654088050319E-004   1.1163700445429049E-003
   1.5673270440251574E-002   6.8144654088050319E-004   1.0580203573917228E-003
   1.7036163522012579E-002   6.8144654088050319E-004   9.9748612557684678E-004
   1.8399056603773584E-002   6.8144654088050319E-004   9.3784309558671980E-004
   1.9761949685534588E-002   6.8144654088050319E-004   8.8110171492508096E-004
   2.1124842767295593E-002   6.8144654088050319E-004   8.2846419135425146E-004
   2.2487735849056598E-002   6.8144654088050319E-004   7.8054099020088855E-004
   2.3850628930817602E-002   6.8144654088050319E-004   7.3752543817842556E-004
   2.5213522012578607E-002   6.8144654088050319E-004   6.9933036700035433E-004
   2.6576415094339612E-002   6.8144654088050319E-004   6.6569173224077403E-004
   2.7939308176100616E-002   6.8144654088050319E-004   6.3624456985445963E-004
   2.9302201257861621E-002   6.8144654088050319E-004   6.1057668136560038E-004
   3.0665094339622626E-002   6.8144654088050319E-004   5.8826501753267749E-004
   3.2027987421383623E-002   6.8144654088050319E-004   5.6889906600449374E-004
   3.3390880503144635E-002   6.8144654088050319E-004   5.5209479509377472E-004
   3.4753773584905646E-002   6.8144654088050319E-004   5.3750196621114995E-004
   3.6116666666666651E-002   6.8144654088050319E-004   5.2480696377514167E-004
   3.7479559748427649E-002   6.8144654088050319E-004   5.1373273182873057E-004
   3.8842452830188653E-002   6.8144654088050319E-004   5.0403695670768781E-004
   4.0205345911949658E-002   6.8144654088050309E-004   4.9550928708047863E-004
   4.1568238993710663E-002   6.8144654088050319E-004   4.8796812229076684E-004
   4.2931132075471674E-002   6.8144654088050309E-004   4.8125731080313520E-004
   4.4294025157232679E-002   6.8144654088050319E-004   4.7524296706425540E-004
   4.5656918238993677E-002   6.8144654088050319E-004   4.6981052359923952E-004
   4.7019811320754688E-002   6.8144654088050319E-004   4.6486207430507400E-004
   4.8382704402515693E-002   6.8144654088050319E-004   4.6031402602008715E-004
   4.9745597484276698E-002   6.8144654088050319E-004   4.5609505171256956E-004
   5.1108490566037695E-002   6.8144654088050319E-004   4.5214432520247581E-004
   5.2471383647798707E-002   6.8144654088050319E-004   4.4841001070152376E-004
   5.3834276729559712E-002   6.8144654088050319E-004   4.4484797805927089E-004
   5.5197169811320709E-002   6.8144654088050319E-004   4.4142071489940859E-004
   5.6560062893081714E-002   6.8144654088050319E-004   4.3809640851365337E-004
   5.7922955974842719E-002   6.8144654088050319E-004   4.3484817290059520E-004
   5.9285849056603723E-002   6.8144654088050319E-004   4.3165339906680716E-004
   6.0648742138364735E-002   6.8144654088050319E-004   4.2849320948135040E-004
   6.2011635220125740E-002   6.8144654088050319E-004   4.2535200018466288E-004
   6.3374528301886737E-002   6.8144654088050319E-004   4.2221705640923851E-004
   6.4737421383647742E-002   6.8144654088050319E-004   4.1907822970146892E-004
   6.6100314465408747E-002   6.8144654088050319E-004   4.1592766634300423E-004
   6.7463207547169751E-002   6.8144654088050319E-004   4.1275957847484068E-004
   6.8826100628930756E-002   6.8144654088050319E-004   4.0957005069358529E-004
   7.0188993710691761E-002   6.8144654088050319E-004   4.0635687603086273E-004
   7.1551886792452765E-002   6.8144654088050319E-004   4.0311941622077618E-004
   7.2914779874213770E-002   6.8144654088050319E-004   3.9985848199863269E-004
   7.4277672955974774E-002   6.8144654088050319E-004   3.9657622987181418E-004
   7.5640566037735779E-002   6.8144654088050330E-004   3.9327607241883148E-004
   7.7003459119496784E-002   6.8144654088050319E-004   3.8996259968980133E-004
   7.8366352201257775E-002   6.8144654088050319E-004   3.8664150971273628E-004
   7.9729245283018793E-002   6.8144654088050319E-004   3.8331954651485314E-004
   8.1092138364779798E-002   6.8144654088050319E-004   3.8000444440265538E-004
   8.2455031446540802E-002   6.8144654088050319E-004   3.7670487753704753E-004
   8.3817924528301807E-002   6.8144654088050309E-004   3.7343041414107024E-004
   8.5180817610062812E-002   6.8144654088050319E-004   3.7019147492838809E-004
   8.6543710691823816E-002   6.8144654088050330E-004   3.6699929558107954E-004
   8.7906603773584807E-002   6.8144654088050319E-004   3.6386589340483563E-004
   8.9269496855345826E-002   6.8144654088050319E-004   3.6080403850038826E-004
   9.0632389937106830E-002   6.8144654088050319E-004   3.5782723013746493E-004
   9.1995283018867835E-002   6.8144654088050319E-004   3.5494967931317854E-004
   9.3358176100628840E-002   6.8144654088050319E-004   3.5218629888145175E-004
   9.4721069182389844E-002   6.8144654088050319E-004   3.4955270311726796E-004
   9.6083962264150863E-002   6.8144654088050319E-004   3.4706521917417580E-004
   9.7446855345911840E-002   6.8144654088050319E-004   3.4474091370998756E-004
   9.8809748427672858E-002   6.8144654088050319E-004   3.4259763941835912E-004
  0.10017264150943386        6.8144654088050319E-004   3.4065410901548264E-004
  0.10153553459119485        6.8144654088050319E-004   3.3893000398421810E-004
  0.10289842767295586        6.8144654088050319E-004   3.3744613493779735E-004
  0.10426132075471686        6.8144654088050319E-004   3.3622469015243817E-004
  0.10562421383647788        6.8144654088050319E-004   3.3528947408532943E-004
  0.10698710691823889        6.8144654088050319E-004   3.3466641889307437E-004
  0.10834999999999989        6.8144654088050319E-004   3.3438418078286515E-004
  0.10971289308176090        6.8144654088050319E-004   3.3447302711729307E-004
  0.11107578616352191        6.8144654088050319E-004   3.3496250177884342E-004
  0.11243867924528290        6.8144654088050319E-004   3.3588128418788097E-004
  0.11380157232704391        6.8144654088050319E-004   3.3726049990750562E-004
  0.11516446540880491        6.8144654088050319E-004   3.3913382972777811E-004
  0.11652735849056592        6.8144654088050319E-004   3.4153779841521973E-004
  0.11789025157232692        6.8144654088050319E-004   3.4451180393530411E-004
  0.11925314465408793        6.8144654088050319E-004   3.4809819257573907E-004
  0.12061603773584893        6.8144654088050319E-004   3.5234237436939752E-004
  0.12197893081760994        6.8144654088050319E-004   3.5729295791485550E-004
  0.12334182389937094        6.8144654088050319E-004   3.6300188849956711E-004
  0.12470471698113195        6.8144654088050319E-004   3.6952457630145478E-004
  0.12606761006289299        6.8144654088050319E-004   3.7692000337461888E-004
  0.12743050314465398        6.8144654088050319E-004   3.8525079920665882E-004
  0.12879339622641500        6.8144654088050319E-004   3.9458327509710883E-004
  0.13015628930817602        6.8144654088050319E-004   4.0498740769131738E-004
  0.13151918238993704        6.8144654088050319E-004   4.1653676182567520E-004
  0.13288207547169806        6.8144654088050319E-004   4.2930834249070262E-004
  0.13424496855345908        6.8144654088050319E-004   4.4338236516844456E-004
  0.13560786163522009        6.8144654088050319E-004   4.5884193302442436E-004
  0.13697075471698109        6.8144654088050319E-004   4.7577260848944162E-004
  0.13833364779874213        6.8144654088050319E-004   4.9426186560327945E-004
  0.13969654088050315        6.8144654088050319E-004   5.1439840818379775E-004
  0.14105943396226414        6.8144654088050319E-004   5.3627133756573421E-004
  0.14242232704402519        6.8144654088050309E-004   5.5996915233427378E-004
  0.14378522012578618        6.8144654088050319E-004   5.8557856140995575E-004
  0.14514811320754722        6.8144654088050319E-004   6.1318309115404764E-004
  0.14651100628930824        6.8144654088050319E-004   6.4286146701054341E-004
  0.14787389937106926        6.8144654088050319E-004   6.7468575086038261E-004
  0.14923679245283028        6.8144654088050319E-004   7.0871921681073984E-004
  0.15059968553459133        6.8144654088050319E-004   7.4501395084215446E-004
  0.15196257861635232        6.8144654088050319E-004   7.8360816370641169E-004
  0.15332547169811336        6.8144654088050330E-004   8.2452321181163829E-004
  0.15468836477987435        6.8144654088050319E-004   8.6776032773694335E-004
  0.15605125786163537        6.8144654088050319E-004   9.1329707046501358E-004
  0.15741415094339639        6.8144654088050309E-004   9.6108351552330672E-004
  0.15877704402515741        6.8144654088050309E-004   1.0110382168568982E-003
  0.16013993710691843        6.8144654088050330E-004   1.0630439854472542E-003
  0.16150283018867945        6.8144654088050319E-004   1.1169435440754147E-003
  0.16286572327044047        6.8144654088050319E-004   1.1725351330331576E-003
  0.16422861635220148        6.8144654088050319E-004   1.2295681573716282E-003
  0.16559150943396253        6.8144654088050319E-004   1.2877389818485047E-003
  0.16695440251572355        6.8144654088050319E-004   1.3466869939503987E-003
  0.16831729559748454        6.8144654088050309E-004   1.4059910670472691E-003
  0.16968018867924556        6.8144654088050319E-004   1.4651665629245359E-003
  0.17104308176100658        6.8144654088050319E-004   1.5236630135611877E-003
  0.17240597484276760        6.8144654088050319E-004   1.5808626132925354E-003
  0.17376886792452859        6.8144654088050330E-004   1.6360796316477811E-003
  0.17513176100628966        6.8144654088050319E-004   1.6885608288392114E-003
  0.17649465408805065        6.8144654088050319E-004   1.7374869326401386E-003
  0.17785754716981170        6.8144654088050319E-004   1.7819751880831887E-003
  0.17922044025157269        6.8144654088050319E-004   1.8210832477478852E-003
  0.18058333333333371        6.8144654088050319E-004   1.8538165549222684E-003
  0.18194622641509475        6.8144654088050319E-004   1.8791389946531919E-003
  0.18330911949685577        6.8144654088050319E-004   1.8959832024140683E-003
  0.18467201257861676        6.8144654088050319E-004   1.9033933747813869E-003
  0.18603490566037778        6.8144654088050319E-004   1.9007060488121235E-003
  0.18739779874213880        6.8144654088050319E-004   1.8868201148197201E-003
  0.18876069182389982        6.8144654088050319E-004   1.8608253927051605E-003
  0.19012358490566084        6.8144654088050319E-004   1.8220289421171613E-003
  0.19148647798742185        6.8144654088050319E-004   1.7700144944538820E-003
  0.19284937106918287        6.8144654088050319E-004   1.7046792264565199E-003
  0.19421226415094386        6.8144654088050319E-004   1.6262645104383043E-003
  0.19557515723270494        6.8144654088050319E-004   1.5353877772633108E-003
  0.19693805031446593        6.8144654088050319E-004   1.4330690019472511E-003
  0.19830094339622695        6.8144654088050319E-004   1.3207470042722715E-003
  0.19966383647798799        6.8144654088050319E-004   1.2002819874202726E-003
  0.20102672955974901        6.8144654088050319E-004   1.0739424956784582E-003
  0.20238962264151000        6.8144654088050319E-004   9.4437787126044025E-004
  0.20375251572327099        6.8144654088050319E-004   8.1458208979897902E-004
  0.20511540880503204        6.8144654088050319E-004   6.8786249520088943E-004
  0.20647830188679309        6.8144654088050319E-004   5.6783787519127076E-004
  0.20784119496855410        6.8144654088050319E-004   4.5849960372867986E-004
  0.20920408805031510        6.8144654088050319E-004   3.6433780699223893E-004
  0.21056698113207611        6.8144654088050319E-004   2.9030752947137208E-004
  0.21192987421383713        6.8144654088050319E-004   2.4062391233251336E-004
  0.21329276729559818        6.8144654088050319E-004   2.1438754682672926E-004
  0.21465566037735917        6.8144654088050319E-004   1.9822817810762977E-004
  0.21601855345912019        6.8144654088050319E-004   1.4381227736594057E-004
  0.21670000000000000        6.8144654088050319E-004   0.0000000000000000     
   1.2517969876190163E-019   2.0443396226415096E-003   0.0000000000000000     
   6.8144654088050265E-004   2.0443396226415096E-003   2.8270970292172036E-004
   2.0443396226415096E-003   2.0443396226415096E-003   7.1645171524513883E-004
   3.4072327044025155E-003   2.0443396226415096E-003   1.2336094252866153E-003
   4.7701257861635224E-003   2.0443396226415096E-003   1.7344970172287486E-003
   6.1330188679245288E-003   2.0443396226415096E-003   2.1538039733846079E-003
   7.4959119496855360E-003   2.0443396226415096E-003   2.4621014413462664E-003
   8.8588050314465407E-003   2.0443396226415096E-003   2.6587518485978717E-003
   1.0221698113207547E-002   2.0443396226415096E-003   2.7589050630201862E-003
   1.1584591194968555E-002   2.0443396226415096E-003   2.7828555904972681E-003
   1.2947484276729560E-002   2.0443396226415096E-003   2.7513983811271810E-003
   1.4310377358490566E-002   2.0443396226415096E-003   2.6812133876247886E-003
   1.5673270440251574E-002   2.0443396226415096E-003   2.5864341072207235E-003
   1.7036163522012579E-002   2.0443396226415096E-003   2.4779502425644152E-003
   1.8399056603773580E-002   2.0443396226415096E-003   2.3638867011879830E-003
   1.9761949685534588E-002   2.0443396226415096E-003   2.2500575027689595E-003
   2.1124842767295593E-002   2.0443396226415096E-003   2.1404056589689763E-003
   2.2487735849056601E-002   2.0443396226415096E-003   2.0374182479832195E-003
   2.3850628930817602E-002   2.0443396226415096E-003   1.9424878568464522E-003
   2.5213522012578610E-002   2.0443396226415096E-003   1.8562133291302383E-003
   2.6576415094339612E-002   2.0443396226415096E-003   1.7786410796560954E-003
   2.7939308176100620E-002   2.0443396226415096E-003   1.7094522785430569E-003
   2.9302201257861621E-002   2.0443396226415096E-003   1.6481034461100783E-003
   3.0665094339622626E-002   2.0443396226415096E-003   1.5939286673952266E-003
   3.2027987421383630E-002   2.0443396226415096E-003   1.5462113257184887E-003
   3.3390880503144628E-002   2.0443396226415096E-003   1.5042324061550381E-003
   3.4753773584905640E-002   2.0443396226415096E-003   1.4673013295076448E-003
   3.6116666666666644E-002   2.0443396226415096E-003   1.4347741459635667E-003
   3.7479559748427649E-002   2.0443396226415096E-003   1.4060628652749982E-003
   3.8842452830188653E-002   2.0443396226415096E-003   1.3806387875929527E-003
   4.0205345911949658E-002   2.0443396226415096E-003   1.3580319465692305E-003
   4.1568238993710670E-002   2.0443396226415096E-003   1.3378281797410024E-003
   4.2931132075471667E-002   2.0443396226415096E-003   1.3196648833698247E-003
   4.4294025157232679E-002   2.0443396226415096E-003   1.3032261671467771E-003
   4.5656918238993684E-002   2.0443396226415096E-003   1.2882378754603724E-003
   4.7019811320754681E-002   2.0443396226415096E-003   1.2744627652391946E-003
   4.8382704402515693E-002   2.0443396226415096E-003   1.2616960078751427E-003
   4.9745597484276691E-002   2.0443396226415096E-003   1.2497611000701207E-003
   5.1108490566037695E-002   2.0443396226415096E-003   1.2385062143511476E-003
   5.2471383647798707E-002   2.0443396226415096E-003   1.2278009860803823E-003
   5.3834276729559712E-002   2.0443396226415096E-003   1.2175337136654022E-003
   5.5197169811320709E-002   2.0443396226415096E-003   1.2076089379006508E-003
   5.6560062893081714E-002   2.0443396226415096E-003   1.1979453617133274E-003
   5.7922955974842719E-002   2.0443396226415096E-003   1.1884740707008312E-003
   5.9285849056603723E-002   2.0443396226415096E-003   1.1791370163810209E-003
   6.0648742138364728E-002   2.0443396226415096E-003   1.1698857267936828E-003
   6.2011635220125740E-002   2.0443396226415096E-003   1.1606802124767975E-003
   6.3374528301886737E-002   2.0443396226415096E-003   1.1514880393963416E-003
   6.4737421383647742E-002   2.0443396226415096E-003   1.1422835438942619E-003
   6.6100314465408747E-002   2.0443396226415096E-003   1.1330471679766548E-003
   6.7463207547169751E-002   2.0443396226415096E-003   1.1237648962497983E-003
   6.8826100628930756E-002   2.0443396226415096E-003   1.1144277784909771E-003
   7.0188993710691761E-002   2.0443396226415096E-003   1.1050315241681362E-003
   7.1551886792452765E-002   2.0443396226415096E-003   1.0955761573052927E-003
   7.2914779874213770E-002   2.0443396226415096E-003   1.0860657218733530E-003
   7.4277672955974774E-002   2.0443396226415096E-003   1.0765080294458645E-003