 title=Umag
 variables=x,y,Umag
 zone i=          54 ,j=          54
 
   0.0000000000000000        0.0000000000000000        0.0000000000000000     
   2.0836538461538462E-003   0.0000000000000000        0.0000000000000000     
   6.2509615384615386E-003   0.0000000000000000        0.0000000000000000     
   1.0418269230769231E-002   0.0000000000000000        0.0000000000000000     
   1.4585576923076923E-002   0.0000000000000000        0.0000000000000000     
   1.8752884615384616E-002   0.0000000000000000        0.0000000000000000     
   2.2920192307692308E-002   0.0000000000000000        0.0000000000000000     
   2.7087500000000000E-002   0.0000000000000000        0.0000000000000000     
   3.1254807692307693E-002   0.0000000000000000        0.0000000000000000     
   3.5422115384615385E-002   0.0000000000000000        0.0000000000000000     
   3.9589423076923078E-002   0.0000000000000000        0.0000000000000000     
   4.3756730769230770E-002   0.0000000000000000        0.0000000000000000     
   4.7924038461538462E-002   0.0000000000000000        0.0000000000000000     
   5.2091346153846155E-002   0.0000000000000000        0.0000000000000000     
   5.6258653846153847E-002   0.0000000000000000        0.0000000000000000     
   6.0425961538461540E-002   0.0000000000000000        0.0000000000000000     
   6.4593269230769232E-002   0.0000000000000000        0.0000000000000000     
   6.8760576923076924E-002   0.0000000000000000        0.0000000000000000     
   7.2927884615384617E-002   0.0000000000000000        0.0000000000000000     
   7.7095192307692309E-002   0.0000000000000000        0.0000000000000000     
   8.1262500000000001E-002   0.0000000000000000        0.0000000000000000     
   8.5429807692307694E-002   0.0000000000000000        0.0000000000000000     
   8.9597115384615386E-002   0.0000000000000000        0.0000000000000000     
   9.3764423076923079E-002   0.0000000000000000        0.0000000000000000     
   9.7931730769230771E-002   0.0000000000000000        0.0000000000000000     
  0.10209903846153846        0.0000000000000000        0.0000000000000000     
  0.10626634615384616        0.0000000000000000        0.0000000000000000     
  0.11043365384615385        0.0000000000000000        0.0000000000000000     
  0.11460096153846154        0.0000000000000000        0.0000000000000000     
  0.11876826923076923        0.0000000000000000        0.0000000000000000     
  0.12293557692307693        0.0000000000000000        0.0000000000000000     
  0.12710288461538460        0.0000000000000000        0.0000000000000000     
  0.13127019230769230        0.0000000000000000        0.0000000000000000     
  0.13543749999999999        0.0000000000000000        0.0000000000000000     
  0.13960480769230768        0.0000000000000000        0.0000000000000000     
  0.14377211538461537        0.0000000000000000        0.0000000000000000     
  0.14793942307692307        0.0000000000000000        0.0000000000000000     
  0.15210673076923076        0.0000000000000000        0.0000000000000000     
  0.15627403846153845        0.0000000000000000        0.0000000000000000     
  0.16044134615384614        0.0000000000000000        0.0000000000000000     
  0.16460865384615384        0.0000000000000000        0.0000000000000000     
  0.16877596153846153        0.0000000000000000        0.0000000000000000     
  0.17294326923076922        0.0000000000000000        0.0000000000000000     
  0.17711057692307691        0.0000000000000000        0.0000000000000000     
  0.18127788461538460        0.0000000000000000        0.0000000000000000     
  0.18544519230769230        0.0000000000000000        0.0000000000000000     
  0.18961249999999999        0.0000000000000000        0.0000000000000000     
  0.19377980769230768        0.0000000000000000        0.0000000000000000     
  0.19794711538461537        0.0000000000000000        0.0000000000000000     
  0.20211442307692307        0.0000000000000000        0.0000000000000000     
  0.20628173076923076        0.0000000000000000        0.0000000000000000     
  0.21044903846153845        0.0000000000000000        0.0000000000000000     
  0.21461634615384614        0.0000000000000000        0.0000000000000000     
  0.21670000000000000        0.0000000000000000        0.0000000000000000     
   1.2758700066116897E-019   2.0836538461538462E-003   0.0000000000000000     
   2.0836538461538466E-003   2.0836538461538462E-003   1.9549646815704698E-003
   6.2509615384615386E-003   2.0836538461538462E-003   3.2264305124023117E-003
   1.0418269230769231E-002   2.0836538461538462E-003   3.8344213819423612E-003
   1.4585576923076923E-002   2.0836538461538462E-003   3.6269462129442376E-003
   1.8752884615384616E-002   2.0836538461538462E-003   3.2190211432518516E-003
   2.2920192307692308E-002   2.0836538461538462E-003   2.7338172012687473E-003
   2.7087500000000000E-002   2.0836538461538462E-003   2.3510241868223733E-003
   3.1254807692307693E-002   2.0836538461538462E-003   2.0440059415984205E-003
   3.5422115384615385E-002   2.0836538461538462E-003   1.8320180944804620E-003
   3.9589423076923078E-002   2.0836538461538462E-003   1.6765663320047247E-003
   4.3756730769230777E-002   2.0836538461538462E-003   1.5701808805161138E-003
   4.7924038461538462E-002   2.0836538461538462E-003   1.4912042734014186E-003
   5.2091346153846148E-002   2.0836538461538462E-003   1.4334430266542662E-003
   5.6258653846153847E-002   2.0836538461538462E-003   1.3871603301627775E-003
   6.0425961538461540E-002   2.0836538461538462E-003   1.3492347113686128E-003
   6.4593269230769232E-002   2.0836538461538462E-003   1.3156158054064566E-003
   6.8760576923076924E-002   2.0836538461538462E-003   1.2849726616350587E-003
   7.2927884615384617E-002   2.0836538461538462E-003   1.2558088112281339E-003
   7.7095192307692309E-002   2.0836538461538462E-003   1.2278157217056824E-003
   8.1262499999999988E-002   2.0836538461538462E-003   1.2007803153570376E-003
   8.5429807692307680E-002   2.0836538461538462E-003   1.1750837559241212E-003
   8.9597115384615400E-002   2.0836538461538462E-003   1.1512735935190603E-003
   9.3764423076923079E-002   2.0836538461538462E-003   1.1302184426885641E-003
   9.7931730769230771E-002   2.0836538461538462E-003   1.1129487732105994E-003
  0.10209903846153846        2.0836538461538462E-003   1.1006674603579593E-003
  0.10626634615384617        2.0836538461538462E-003   1.0946895225773258E-003
  0.11043365384615386        2.0836538461538462E-003   1.0969232202332451E-003
  0.11460096153846155        2.0836538461538462E-003   1.1092918055556273E-003
  0.11876826923076923        2.0836538461538462E-003   1.1340654638484242E-003
  0.12293557692307693        2.0836538461538462E-003   1.1739603716184033E-003
  0.12710288461538460        2.0836538461538462E-003   1.2322812623136415E-003
  0.13127019230769230        2.0836538461538462E-003   1.3129441672631076E-003
  0.13543749999999999        2.0836538461538462E-003   1.4204076019931769E-003
  0.13960480769230768        2.0836538461538462E-003   1.5594901011844742E-003
  0.14377211538461537        2.0836538461538462E-003   1.7349773041117277E-003
  0.14793942307692304        2.0836538461538462E-003   1.9510217627833840E-003
  0.15210673076923076        2.0836538461538462E-003   2.2101886874323238E-003
  0.15627403846153845        2.0836538461538462E-003   2.5123069457549880E-003
  0.16044134615384617        2.0836538461538462E-003   2.8528813174023642E-003
  0.16460865384615384        2.0836538461538462E-003   3.2218252299940887E-003
  0.16877596153846153        2.0836538461538462E-003   3.6015929255666639E-003
  0.17294326923076922        2.0836538461538462E-003   3.9675251201991574E-003
  0.17711057692307694        2.0836538461538462E-003   4.2848534365807142E-003
  0.18127788461538460        2.0836538461538462E-003   4.5159060646230570E-003
  0.18544519230769230        2.0836538461538462E-003   4.6023795668074753E-003
  0.18961249999999999        2.0836538461538462E-003   4.5082202464757524E-003
  0.19377980769230768        2.0836538461538462E-003   4.1592841905351693E-003
  0.19794711538461537        2.0836538461538462E-003   3.5634574727059169E-003
  0.20211442307692307        2.0836538461538462E-003   2.7247393677764637E-003
  0.20628173076923076        2.0836538461538462E-003   1.8277430798567704E-003
  0.21044903846153845        2.0836538461538462E-003   1.0423882715142143E-003
  0.21461634615384612        2.0836538461538462E-003   5.9940998156118939E-004
  0.21670000000000000        2.0836538461538462E-003   0.0000000000000000     
   3.8276100198350689E-019   6.2509615384615386E-003   0.0000000000000000     
   2.0836538461538462E-003   6.2509615384615386E-003   3.2281425256612392E-003
   6.2509615384615394E-003   6.2509615384615386E-003   3.7928260502934873E-003
   1.0418269230769231E-002   6.2509615384615386E-003   4.7405784724639565E-003
   1.4585576923076925E-002   6.2509615384615386E-003   5.1432843394901059E-003
   1.8752884615384612E-002   6.2509615384615386E-003   5.1666414712928056E-003
   2.2920192307692312E-002   6.2509615384615386E-003   4.8896241169770942E-003
   2.7087500000000000E-002   6.2509615384615386E-003   4.5814286555693664E-003
   3.1254807692307693E-002   6.2509615384615386E-003   4.2670773921340563E-003
   3.5422115384615385E-002   6.2509615384615386E-003   4.0125613236924769E-003
   3.9589423076923078E-002   6.2509615384615386E-003   3.7990206041372313E-003
   4.3756730769230770E-002   6.2509615384615386E-003   3.6328408956166069E-003
   4.7924038461538462E-002   6.2509615384615386E-003   3.4960910264739773E-003
   5.2091346153846155E-002   6.2509615384615386E-003   3.3849984367744280E-003
   5.6258653846153847E-002   6.2509615384615386E-003   3.2892161843517064E-003
   6.0425961538461540E-002   6.2509615384615386E-003   3.2052751056212843E-003
   6.4593269230769218E-002   6.2509615384615386E-003   3.1281650823594431E-003
   6.8760576923076924E-002   6.2509615384615386E-003   3.0561570720936057E-003
   7.2927884615384617E-002   6.2509615384615386E-003   2.9874729994027868E-003
   7.7095192307692309E-002   6.2509615384615386E-003   2.9220500996410999E-003
   8.1262500000000001E-002   6.2509615384615386E-003   2.8602344666600887E-003
   8.5429807692307694E-002   6.2509615384615377E-003   2.8034294919680827E-003
   8.9597115384615386E-002   6.2509615384615386E-003   2.7535661570484505E-003
   9.3764423076923079E-002   6.2509615384615386E-003   2.7133200184622430E-003
   9.7931730769230757E-002   6.2509615384615386E-003   2.6859617043783982E-003
  0.10209903846153846        6.2509615384615386E-003   2.6752414781306246E-003
  0.10626634615384614        6.2509615384615386E-003   2.6865649535286517E-003
  0.11043365384615385        6.2509615384615386E-003   2.7244155539046253E-003
  0.11460096153846154        6.2509615384615386E-003   2.7937188477622434E-003
  0.11876826923076925        6.2509615384615386E-003   2.9004186144799930E-003
  0.12293557692307693        6.2509615384615386E-003   3.0509252059585782E-003
  0.12710288461538460        6.2509615384615386E-003   3.2520346120085372E-003
  0.13127019230769230        6.2509615384615386E-003   3.5104768861056877E-003
  0.13543749999999999        6.2509615384615386E-003   3.8323032907849951E-003
  0.13960480769230768        6.2509615384615386E-003   4.2219697213233386E-003
  0.14377211538461537        6.2509615384615386E-003   4.6811066762335960E-003
  0.14793942307692307        6.2509615384615386E-003   5.2070733558426075E-003
  0.15210673076923073        6.2509615384615386E-003   5.7913450872294873E-003
  0.15627403846153845        6.2509615384615386E-003   6.4180811871212906E-003
  0.16044134615384614        6.2509615384615386E-003   7.0628985587717213E-003
  0.16460865384615384        6.2509615384615377E-003   7.6924172120234049E-003
  0.16877596153846153        6.2509615384615377E-003   8.2642139724338239E-003
  0.17294326923076922        6.2509615384615386E-003   8.7279228282124109E-003
  0.17711057692307691        6.2509615384615386E-003   9.0269841671181753E-003
  0.18127788461538460        6.2509615384615377E-003   9.0995322200461432E-003
  0.18544519230769232        6.2509615384615386E-003   8.8885591890194154E-003
  0.18961250000000002        6.2509615384615386E-003   8.3305803914484750E-003
  0.19377980769230768        6.2509615384615377E-003   7.4127841725223267E-003
  0.19794711538461537        6.2509615384615386E-003   6.1828269820477953E-003
  0.20211442307692309        6.2509615384615386E-003   4.6794587144462080E-003
  0.20628173076923076        6.2509615384615386E-003   3.0973227642715033E-003
  0.21044903846153845        6.2509615384615386E-003   1.5241693874963366E-003
  0.21461634615384614        6.2509615384615386E-003   2.7790179420164260E-004
  0.21670000000000000        6.2509615384615386E-003   0.0000000000000000     
   6.3793500330584483E-019   1.0418269230769231E-002   0.0000000000000000     
   2.0836538461538479E-003   1.0418269230769231E-002   5.4843419188852780E-003
   6.2509615384615412E-003   1.0418269230769231E-002   5.2849594873571751E-003
   1.0418269230769229E-002   1.0418269230769231E-002   5.2331412313981300E-003
   1.4585576923076925E-002   1.0418269230769231E-002   5.7450545221517085E-003
   1.8752884615384616E-002   1.0418269230769231E-002   6.0907021497251983E-003
   2.2920192307692308E-002   1.0418269230769231E-002   6.0621191493524405E-003
   2.7087500000000000E-002   1.0418269230769231E-002   5.9060250937429748E-003
   3.1254807692307693E-002   1.0418269230769231E-002   5.6786548057510353E-003
   3.5422115384615385E-002   1.0418269230769231E-002   5.4670523201310901E-003
   3.9589423076923078E-002   1.0418269230769231E-002   5.2714784559685646E-003
   4.3756730769230770E-002   1.0418269230769231E-002   5.1076062091756002E-003
   4.7924038461538462E-002   1.0418269230769231E-002   4.9649030307883620E-003
   5.2091346153846148E-002   1.0418269230769231E-002   4.8428999733990214E-003
   5.6258653846153847E-002   1.0418269230769231E-002   4.7338792580843654E-003
   6.0425961538461540E-002   1.0418269230769231E-002   4.6355217178219296E-003
   6.4593269230769232E-002   1.0418269230769231E-002   4.5438261653482854E-003
   6.8760576923076924E-002   1.0418269230769231E-002   4.4576140748892384E-003
   7.2927884615384617E-002   1.0418269230769231E-002   4.3757122447668400E-003
   7.7095192307692309E-002   1.0418269230769231E-002   4.2985968330114047E-003
   8.1262500000000001E-002   1.0418269230769231E-002   4.2272952121206239E-003
   8.5429807692307680E-002   1.0418269230769231E-002   4.1640127880286787E-003
   8.9597115384615386E-002   1.0418269230769231E-002   4.1117048943909206E-003
   9.3764423076923079E-002   1.0418269230769231E-002   4.0743351963894803E-003
   9.7931730769230771E-002   1.0418269230769231E-002   4.0566476598923049E-003
  0.10209903846153846        1.0418269230769231E-002   4.0640269007516175E-003
  0.10626634615384616        1.0418269230769231E-002   4.1023247607944926E-003
  0.11043365384615385        1.0418269230769231E-002   4.1770889943601461E-003
  0.11460096153846154        1.0418269230769231E-002   4.2960183543360158E-003
  0.11876826923076923        1.0418269230769231E-002   4.4663976120063358E-003
  0.12293557692307691        1.0418269230769231E-002   4.6957445334874365E-003
  0.12710288461538460        1.0418269230769231E-002   4.9908734083132112E-003
  0.13127019230769230        1.0418269230769233E-002   5.3572365070605433E-003
  0.13543750000000002        1.0418269230769231E-002   5.7978284513071597E-003
  0.13960480769230768        1.0418269230769231E-002   6.3120058126195037E-003
  0.14377211538461537        1.0418269230769231E-002   6.8941833363245107E-003
  0.14793942307692307        1.0418269230769231E-002   7.5326503237904893E-003
  0.15210673076923076        1.0418269230769231E-002   8.2085908335707090E-003
  0.15627403846153845        1.0418269230769229E-002   8.8956041381349823E-003
  0.16044134615384614        1.0418269230769231E-002   9.5596943890212185E-003
  0.16460865384615386        1.0418269230769231E-002   1.0160064110191443E-002
  0.16877596153846153        1.0418269230769231E-002   1.0650379419508109E-002
  0.17294326923076922        1.0418269230769231E-002   1.0981137382417790E-002
  0.17711057692307691        1.0418269230769231E-002   1.1101614361540859E-002
  0.18127788461538460        1.0418269230769231E-002   1.0966271215265323E-002
  0.18544519230769230        1.0418269230769231E-002   1.0528618855378270E-002
  0.18961249999999996        1.0418269230769231E-002   9.8045500308216165E-003
  0.19377980769230765        1.0418269230769231E-002   8.8196672183975880E-003
  0.19794711538461537        1.0418269230769231E-002   7.6523334886124394E-003
  0.20211442307692304        1.0418269230769231E-002   6.3356241675127144E-003
  0.20628173076923076        1.0418269230769231E-002   4.9683550326945101E-003
  0.21044903846153842        1.0418269230769231E-002   3.4175675567912063E-003
  0.21461634615384614        1.0418269230769231E-002   1.5098606859175535E-003
  0.21670000000000000        1.0418269230769231E-002   0.0000000000000000     
   8.9310900462818273E-019   1.4585576923076923E-002   0.0000000000000000     
   2.0836538461538419E-003   1.4585576923076923E-002   7.0817448520565270E-003
   6.2509615384615429E-003   1.4585576923076923E-002   6.7685109360009496E-003
   1.0418269230769233E-002   1.4585576923076923E-002   5.3977290529597525E-003
   1.4585576923076922E-002   1.4585576923076925E-002   5.4719433710192378E-003
   1.8752884615384623E-002   1.4585576923076923E-002   6.0016964761330487E-003
   2.2920192307692308E-002   1.4585576923076923E-002   6.2421525050285571E-003
   2.7087499999999997E-002   1.4585576923076923E-002   6.3152308168976604E-003
   3.1254807692307693E-002   1.4585576923076923E-002   6.2638812098128015E-003
   3.5422115384615392E-002   1.4585576923076923E-002   6.1807851212862435E-003
   3.9589423076923078E-002   1.4585576923076925E-002   6.0769770617740007E-003
   4.3756730769230770E-002   1.4585576923076923E-002   5.9766276223232519E-003
   4.7924038461538455E-002   1.4585576923076923E-002   5.8773562839657600E-003
   5.2091346153846148E-002   1.4585576923076923E-002   5.7843682339963464E-003
   5.6258653846153847E-002   1.4585576923076923E-002   5.6947271600776284E-003
   6.0425961538461546E-002   1.4585576923076923E-002   5.6093294907731605E-003
   6.4593269230769232E-002   1.4585576923076923E-002   5.5267436715757201E-003
   6.8760576923076924E-002   1.4585576923076923E-002   5.4475593857564505E-003
   7.2927884615384603E-002   1.4585576923076923E-002   5.3720319893432854E-003
   7.7095192307692309E-002   1.4585576923076923E-002   5.3017114024231727E-003
   8.1262500000000001E-002   1.4585576923076923E-002   5.2385520842722416E-003
   8.5429807692307694E-002   1.4585576923076922E-002   5.1855657973749886E-003
   8.9597115384615400E-002   1.4585576923076923E-002   5.1464249098870036E-003
   9.3764423076923079E-002   1.4585576923076923E-002   5.1258983722497035E-003
   9.7931730769230771E-002   1.4585576923076923E-002   5.1291051395940994E-003
  0.10209903846153846        1.4585576923076923E-002   5.1630504003327164E-003
  0.10626634615384617        1.4585576923076923E-002   5.2323870001635712E-003
  0.11043365384615385        1.4585576923076923E-002   5.3441564697199106E-003
  0.11460096153846155        1.4585576923076923E-002   5.5052083217631059E-003
  0.11876826923076923        1.4585576923076923E-002   5.7222992180386125E-003
  0.12293557692307693        1.4585576923076923E-002   6.0011370945487110E-003
  0.12710288461538460        1.4585576923076923E-002   6.3457765625452110E-003
  0.13127019230769230        1.4585576923076923E-002   6.7576909971407565E-003
  0.13543749999999999        1.4585576923076923E-002   7.2348314657921927E-003
  0.13960480769230768        1.4585576923076923E-002   7.7706879986115468E-003
  0.14377211538461537        1.4585576923076923E-002   8.3534647555219485E-003
  0.14793942307692307        1.4585576923076923E-002   8.9655303532304442E-003
  0.15210673076923073        1.4585576923076922E-002   9.5831708340914715E-003
  0.15627403846153845        1.4585576923076925E-002   1.0176858809047893E-002
  0.16044134615384617        1.4585576923076923E-002   1.0711961798138030E-002
  0.16460865384615384        1.4585576923076923E-002   1.1150138605702051E-002
  0.16877596153846153        1.4585576923076923E-002   1.1451523392229527E-002
  0.17294326923076922        1.4585576923076923E-002   1.1577505125488403E-002
  0.17711057692307694        1.4585576923076923E-002   1.1497136689353916E-002
  0.18127788461538460        1.4585576923076925E-002   1.1193512834800820E-002
  0.18544519230769227        1.4585576923076923E-002   1.0678754699063353E-002
  0.18961249999999999        1.4585576923076923E-002   1.0000333647242760E-002
  0.19377980769230765        1.4585576923076923E-002   9.1973497900746104E-003
  0.19794711538461537        1.4585576923076922E-002   8.3385737461111609E-003
  0.20211442307692307        1.4585576923076923E-002   7.3841193255476806E-003
  0.20628173076923076        1.4585576923076923E-002   6.2460451279738524E-003
  0.21044903846153845        1.4585576923076923E-002   4.5277990225553481E-003
  0.21461634615384612        1.4585576923076923E-002   1.8783582839098836E-003
  0.21669999999999998        1.4585576923076922E-002   0.0000000000000000     
   1.1482830059505206E-018   1.8752884615384616E-002   0.0000000000000000     
   2.0836538461538471E-003   1.8752884615384616E-002   8.4687149537233750E-003
   6.2509615384615342E-003   1.8752884615384616E-002   8.4283285271923736E-003
   1.0418269230769234E-002   1.8752884615384616E-002   6.0336258108216198E-003
   1.4585576923076929E-002   1.8752884615384616E-002   5.3592114729589940E-003
   1.8752884615384619E-002   1.8752884615384616E-002   5.8444173239352321E-003
   2.2920192307692308E-002   1.8752884615384616E-002   6.2584038749640405E-003
   2.7087500000000004E-002   1.8752884615384616E-002   6.4950046847195783E-003
   3.1254807692307686E-002   1.8752884615384616E-002   6.5751156565682827E-003
   3.5422115384615385E-002   1.8752884615384616E-002   6.5905932367179973E-003
   3.9589423076923078E-002   1.8752884615384616E-002   6.5617567565510000E-003
   4.3756730769230770E-002   1.8752884615384616E-002   6.5179129841975254E-003
   4.7924038461538462E-002   1.8752884615384616E-002   6.4622006525289861E-003
   5.2091346153846155E-002   1.8752884615384616E-002   6.4031309423463736E-003
   5.6258653846153847E-002   1.8752884615384616E-002   6.3408089198385828E-003
   6.0425961538461540E-002   1.8752884615384616E-002   6.2780595386215431E-003
   6.4593269230769232E-002   1.8752884615384616E-002   6.2150719520200175E-003
   6.8760576923076910E-002   1.8752884615384616E-002   6.1534501638893730E-003
   7.2927884615384603E-002   1.8752884615384616E-002   6.0942138686485093E-003
   7.7095192307692309E-002   1.8752884615384616E-002   6.0393304693949247E-003
   8.1262499999999988E-002   1.8752884615384616E-002   5.9909973394564288E-003
   8.5429807692307694E-002   1.8752884615384616E-002   5.9522461336889215E-003
   8.9597115384615400E-002   1.8752884615384616E-002   5.9266761875470374E-003
   9.3764423076923079E-002   1.8752884615384616E-002   5.9186639296403016E-003
   9.7931730769230771E-002   1.8752884615384616E-002   5.9330901033704869E-003
  0.10209903846153846        1.8752884615384616E-002   5.9752681228658899E-003
  0.10626634615384616        1.8752884615384616E-002   6.0505438180267169E-003
  0.11043365384615385        1.8752884615384616E-002   6.1659729511575386E-003
  0.11460096153846154        1.8752884615384616E-002   6.3274611878980482E-003
  0.11876826923076923        1.8752884615384616E-002   6.5404934244506522E-003
  0.12293557692307693        1.8752884615384616E-002   6.8090271104503794E-003
  0.12710288461538460        1.8752884615384616E-002   7.1348545622193721E-003
  0.13127019230769230        1.8752884615384616E-002   7.5167215989375962E-003
  0.13543749999999999        1.8752884615384616E-002   7.9495455140379256E-003
  0.13960480769230768        1.8752884615384616E-002   8.4237770127403317E-003
  0.14377211538461537        1.8752884615384616E-002   8.9249870450589970E-003
  0.14793942307692307        1.8752884615384616E-002   9.4338452066532550E-003
  0.15210673076923076        1.8752884615384616E-002   9.9264574460068197E-003
  0.15627403846153848        1.8752884615384616E-002   1.0375329621335612E-002
  0.16044134615384614        1.8752884615384616E-002   1.0750820424094840E-002
  0.16460865384615384        1.8752884615384616E-002   1.1023503829291188E-002
  0.16877596153846153        1.8752884615384616E-002   1.1167604506972037E-002
  0.17294326923076922        1.8752884615384616E-002   1.1164749051426755E-002
  0.17711057692307691        1.8752884615384616E-002   1.1013699623422147E-002
  0.18127788461538460        1.8752884615384616E-002   1.0726623092254365E-002
  0.18544519230769230        1.8752884615384616E-002   1.0362644448627879E-002
  0.18961249999999999        1.8752884615384616E-002   9.9845673536249433E-003
  0.19377980769230768        1.8752884615384616E-002   9.6352233398515827E-003
  0.19794711538461535        1.8752884615384616E-002   9.3354516720909955E-003
  0.20211442307692304        1.8752884615384616E-002   8.9244222866623358E-003
  0.20628173076923076        1.8752884615384616E-002   8.1124339767647685E-003
  0.21044903846153845        1.8752884615384616E-002   6.2799874314153131E-003
  0.21461634615384614        1.8752884615384616E-002   2.8242654964780933E-003
  0.21670000000000000        1.8752884615384616E-002   0.0000000000000000     
   1.4034570072728585E-018   2.2920192307692308E-002   0.0000000000000000     
   2.0836538461538432E-003   2.2920192307692308E-002   9.5667901263138209E-003
   6.2509615384615438E-003   2.2920192307692308E-002   1.0037578500991641E-002
   1.0418269230769233E-002   2.2920192307692308E-002   6.9695259911318717E-003
   1.4585576923076923E-002   2.2920192307692308E-002   5.4031059786409140E-003
   1.8752884615384619E-002   2.2920192307692308E-002   5.5524711998794166E-003
   2.2920192307692312E-002   2.2920192307692308E-002   6.0023064638515195E-003
   2.7087499999999997E-002   2.2920192307692308E-002   6.3511673307330551E-003
   3.1254807692307693E-002   2.2920192307692308E-002   6.5409282975719988E-003
   3.5422115384615392E-002   2.2920192307692308E-002   6.6503602561459778E-003
   3.9589423076923078E-002   2.2920192307692308E-002   6.6992582503275309E-003
   4.3756730769230770E-002   2.2920192307692308E-002   6.7188689554608452E-003
   4.7924038461538455E-002   2.2920192307692308E-002   6.7152681175659864E-003
   5.2091346153846155E-002   2.2920192307692308E-002   6.6992248125412306E-003
   5.6258653846153847E-002   2.2920192307692308E-002   6.6731035315469728E-003
   6.0425961538461546E-002   2.2920192307692308E-002   6.6413393297163580E-003
   6.4593269230769218E-002   2.2920192307692308E-002   6.6054905012831299E-003
   6.8760576923076910E-002   2.2920192307692308E-002   6.5680514347883582E-003
   7.2927884615384617E-002   2.2920192307692308E-002   6.5306643827075933E-003
   7.7095192307692323E-002   2.2920192307692312E-002   6.4955775658230271E-003
   8.1262499999999988E-002   2.2920192307692308E-002   6.4650451721774667E-003
   8.5429807692307694E-002   2.2920192307692308E-002   6.4418969773570069E-003
   8.9597115384615386E-002   2.2920192307692312E-002   6.4294094148030214E-003
   9.3764423076923065E-002   2.2920192307692308E-002   6.4313377129380728E-003
   9.7931730769230771E-002   2.2920192307692308E-002   6.4523055610127330E-003
  0.10209903846153845        2.2920192307692308E-002   6.4963281621978107E-003
  0.10626634615384616        2.2920192307692308E-002   6.5690410365925843E-003
  0.11043365384615385        2.2920192307692308E-002   6.6756321503456317E-003
  0.11460096153846153        2.2920192307692308E-002   6.8209953146506162E-003
  0.11876826923076923        2.2920192307692308E-002   7.0089761417667026E-003
  0.12293557692307694        2.2920192307692308E-002   7.2417645713309465E-003
  0.12710288461538460        2.2920192307692308E-002   7.5191833696450000E-003
  0.13127019230769232        2.2920192307692308E-002   7.8379993386915731E-003
  0.13543749999999999        2.2920192307692308E-002   8.1913358678749985E-003
  0.13960480769230768        2.2920192307692308E-002   8.5683224157481631E-003
  0.14377211538461537        2.2920192307692308E-002   8.9540061522391731E-003
  0.14793942307692304        2.2920192307692308E-002   9.3297371394490732E-003
  0.15210673076923076        2.2920192307692308E-002   9.6739150711265456E-003
  0.15627403846153845        2.2920192307692308E-002   9.9635113498333251E-003
  0.16044134615384614        2.2920192307692308E-002   1.0175992335595005E-002
  0.16460865384615384        2.2920192307692305E-002   1.0292635438315767E-002
  0.16877596153846153        2.2920192307692312E-002   1.0302175123290043E-002
  0.17294326923076922        2.2920192307692308E-002   1.0207420383776682E-002
  0.17711057692307691        2.2920192307692308E-002   1.0031793636612952E-002
  0.18127788461538463        2.2920192307692312E-002   9.8297054876032002E-003
  0.18544519230769230        2.2920192307692308E-002   9.6823267793678825E-003
  0.18961249999999999        2.2920192307692308E-002   9.6689959621572112E-003
  0.19377980769230768        2.2920192307692308E-002   9.8196992297206673E-003
  0.19794711538461535        2.2920192307692308E-002   1.0084571230600078E-002
  0.20211442307692309        2.2920192307692308E-002   1.0176608636412969E-002
  0.20628173076923076        2.2920192307692308E-002   9.6355516345807014E-003
  0.21044903846153845        2.2920192307692308E-002   7.6494869003786272E-003
  0.21461634615384614        2.2920192307692308E-002   3.4295870172961537E-003
  0.21670000000000000        2.2920192307692308E-002   0.0000000000000000     