 title=Umag
 variables=x,y,Umag
 zone i=          55 ,j=          55
 
   0.0000000000000000        0.0000000000000000        0.0000000000000000     
   4.7169811320754717E-004   0.0000000000000000        0.0000000000000000     
   1.4150943396226416E-003   0.0000000000000000        0.0000000000000000     
   2.3584905660377362E-003   0.0000000000000000        0.0000000000000000     
   3.3018867924528303E-003   0.0000000000000000        0.0000000000000000     
   4.2452830188679245E-003   0.0000000000000000        0.0000000000000000     
   5.1886792452830186E-003   0.0000000000000000        0.0000000000000000     
   6.1320754716981127E-003   0.0000000000000000        0.0000000000000000     
   7.0754716981132068E-003   0.0000000000000000        0.0000000000000000     
   8.0188679245283018E-003   0.0000000000000000        0.0000000000000000     
   8.9622641509433960E-003   0.0000000000000000        0.0000000000000000     
   9.9056603773584901E-003   0.0000000000000000        0.0000000000000000     
   1.0849056603773584E-002   0.0000000000000000        0.0000000000000000     
   1.1792452830188678E-002   0.0000000000000000        0.0000000000000000     
   1.2735849056603772E-002   0.0000000000000000        0.0000000000000000     
   1.3679245283018867E-002   0.0000000000000000        0.0000000000000000     
   1.4622641509433961E-002   0.0000000000000000        0.0000000000000000     
   1.5566037735849055E-002   0.0000000000000000        0.0000000000000000     
   1.6509433962264151E-002   0.0000000000000000        0.0000000000000000     
   1.7452830188679245E-002   0.0000000000000000        0.0000000000000000     
   1.8396226415094339E-002   0.0000000000000000        0.0000000000000000     
   1.9339622641509433E-002   0.0000000000000000        0.0000000000000000     
   2.0283018867924527E-002   0.0000000000000000        0.0000000000000000     
   2.1226415094339621E-002   0.0000000000000000        0.0000000000000000     
   2.2169811320754716E-002   0.0000000000000000        0.0000000000000000     
   2.3113207547169810E-002   0.0000000000000000        0.0000000000000000     
   2.4056603773584904E-002   0.0000000000000000        0.0000000000000000     
   2.4999999999999998E-002   0.0000000000000000        0.0000000000000000     
   2.5943396226415092E-002   0.0000000000000000        0.0000000000000000     
   2.6886792452830186E-002   0.0000000000000000        0.0000000000000000     
   2.7830188679245280E-002   0.0000000000000000        0.0000000000000000     
   2.8773584905660374E-002   0.0000000000000000        0.0000000000000000     
   2.9716981132075469E-002   0.0000000000000000        0.0000000000000000     
   3.0660377358490563E-002   0.0000000000000000        0.0000000000000000     
   3.1603773584905660E-002   0.0000000000000000        0.0000000000000000     
   3.2547169811320754E-002   0.0000000000000000        0.0000000000000000     
   3.3490566037735849E-002   0.0000000000000000        0.0000000000000000     
   3.4433962264150943E-002   0.0000000000000000        0.0000000000000000     
   3.5377358490566037E-002   0.0000000000000000        0.0000000000000000     
   3.6320754716981131E-002   0.0000000000000000        0.0000000000000000     
   3.7264150943396225E-002   0.0000000000000000        0.0000000000000000     
   3.8207547169811319E-002   0.0000000000000000        0.0000000000000000     
   3.9150943396226413E-002   0.0000000000000000        0.0000000000000000     
   4.0094339622641507E-002   0.0000000000000000        0.0000000000000000     
   4.1037735849056602E-002   0.0000000000000000        0.0000000000000000     
   4.1981132075471696E-002   0.0000000000000000        0.0000000000000000     
   4.2924528301886790E-002   0.0000000000000000        0.0000000000000000     
   4.3867924528301884E-002   0.0000000000000000        0.0000000000000000     
   4.4811320754716978E-002   0.0000000000000000        0.0000000000000000     
   4.5754716981132072E-002   0.0000000000000000        0.0000000000000000     
   4.6698113207547166E-002   0.0000000000000000        0.0000000000000000     
   4.7641509433962261E-002   0.0000000000000000        0.0000000000000000     
   4.8584905660377355E-002   0.0000000000000000        0.0000000000000000     
   4.9528301886792449E-002   0.0000000000000000        0.0000000000000000     
   5.0000000000000003E-002   0.0000000000000000        0.0000000000000000     
   0.0000000000000000        4.7169811320754717E-004   0.0000000000000000     
   4.7169811320754717E-004   4.7169811320754717E-004   1.9802888476763282E-005
   1.4150943396226416E-003   4.7169811320754717E-004   2.8733548047998616E-005
   2.3584905660377362E-003   4.7169811320754717E-004   3.1224384901896899E-005
   3.3018867924528303E-003   4.7169811320754717E-004   3.3379948499235649E-005
   4.2452830188679245E-003   4.7169811320754717E-004   3.7152110852185761E-005
   5.1886792452830186E-003   4.7169811320754717E-004   4.3076926689738114E-005
   6.1320754716981127E-003   4.7169811320754717E-004   5.0927504341878958E-005
   7.0754716981132068E-003   4.7169811320754717E-004   6.0154534060967549E-005
   8.0188679245283018E-003   4.7169811320754717E-004   7.0193505022358334E-005
   8.9622641509433960E-003   4.7169811320754717E-004   8.0574675557609099E-005
   9.9056603773584901E-003   4.7169811320754717E-004   9.0933597627305043E-005
   1.0849056603773584E-002   4.7169811320754717E-004   1.0099501886498133E-004
   1.1792452830188678E-002   4.7169811320754717E-004   1.1055491741290304E-004
   1.2735849056603772E-002   4.7169811320754717E-004   1.1946597449201013E-004
   1.3679245283018867E-002   4.7169811320754717E-004   1.2762648997408641E-004
   1.4622641509433961E-002   4.7169811320754717E-004   1.3497179150053434E-004
   1.5566037735849055E-002   4.7169811320754717E-004   1.4146731984526257E-004
   1.6509433962264151E-002   4.7169811320754717E-004   1.4710285087912167E-004
   1.7452830188679245E-002   4.7169811320754717E-004   1.5188752697641944E-004
   1.8396226415094339E-002   4.7169811320754717E-004   1.5584550528752305E-004
   1.9339622641509433E-002   4.7169811320754717E-004   1.5901210910550329E-004
   2.0283018867924527E-002   4.7169811320754717E-004   1.6143041589109435E-004
   2.1226415094339621E-002   4.7169811320754717E-004   1.6314822702321425E-004
   2.2169811320754716E-002   4.7169811320754717E-004   1.6421527195240531E-004
   2.3113207547169810E-002   4.7169811320754717E-004   1.6468057981312845E-004
   2.4056603773584904E-002   4.7169811320754717E-004   1.6459150145124761E-004
   2.4999999999999998E-002   4.7169811320754717E-004   1.6399120802326918E-004
   2.5943396226415092E-002   4.7169811320754717E-004   1.6291695270101539E-004
   2.6886792452830186E-002   4.7169811320754717E-004   1.6140063730062055E-004
   2.7830188679245280E-002   4.7169811320754717E-004   1.5946702088621314E-004
   2.8773584905660374E-002   4.7169811320754717E-004   1.5713354821988250E-004
   2.9716981132075469E-002   4.7169811320754717E-004   1.5441009938065725E-004
   3.0660377358490563E-002   4.7169811320754717E-004   1.5129874581053883E-004
   3.1603773584905660E-002   4.7169811320754717E-004   1.4779366818499075E-004
   3.2547169811320754E-002   4.7169811320754717E-004   1.4388126970279401E-004
   3.3490566037735849E-002   4.7169811320754717E-004   1.3954051231110064E-004
   3.4433962264150943E-002   4.7169811320754717E-004   1.3474351904219978E-004
   3.5377358490566037E-002   4.7169811320754717E-004   1.2945650213151783E-004
   3.6320754716981131E-002   4.7169811320754717E-004   1.2364110056386956E-004
   3.7264150943396225E-002   4.7169811320754717E-004   1.1725624617090770E-004
   3.8207547169811319E-002   4.7169811320754717E-004   1.1026072841487737E-004
   3.9150943396226413E-002   4.7169811320754717E-004   1.0261670213598757E-004
   4.0094339622641507E-002   4.7169811320754717E-004   9.4294493037209125E-005
   4.1037735849056602E-002   4.7169811320754717E-004   8.5279223612067334E-005
   4.1981132075471696E-002   4.7169811320754717E-004   7.5580037089378218E-005
   4.2924528301886790E-002   4.7169811320754717E-004   6.5243086830634925E-005
   4.3867924528301884E-002   4.7169811320754717E-004   5.4370124766395989E-005
   4.4811320754716978E-002   4.7169811320754717E-004   4.3145557019144989E-005
   4.5754716981132072E-002   4.7169811320754717E-004   3.1875128945865672E-005
   4.6698113207547166E-002   4.7169811320754717E-004   2.1038260816028287E-005
   4.7641509433962261E-002   4.7169811320754717E-004   1.1363895911093850E-005
   4.8584905660377355E-002   4.7169811320754717E-004   3.9252270291113677E-006
   4.9528301886792449E-002   4.7169811320754717E-004   2.3127473204851521E-007
   5.0000000000000003E-002   4.7169811320754717E-004   0.0000000000000000     
   0.0000000000000000        1.4150943396226416E-003   0.0000000000000000     
   4.7169811320754717E-004   1.4150943396226416E-003   8.1870551707639083E-007
   1.4150943396226416E-003   1.4150943396226416E-003   7.5053921143269227E-006
   2.3584905660377362E-003   1.4150943396226416E-003   1.9153921643835842E-005
   3.3018867924528303E-003   1.4150943396226416E-003   3.5957416171699250E-005
   4.2452830188679245E-003   1.4150943396226416E-003   5.7385983681022522E-005
   5.1886792452830186E-003   1.4150943396226416E-003   8.2469203550256931E-005
   6.1320754716981127E-003   1.4150943396226416E-003   1.1015422500835445E-004
   7.0754716981132068E-003   1.4150943396226416E-003   1.3945328614273006E-004
   8.0188679245283018E-003   1.4150943396226416E-003   1.6949611223442151E-004
   8.9622641509433960E-003   1.4150943396226416E-003   1.9953716226858050E-004
   9.9056603773584901E-003   1.4150943396226416E-003   2.2895214170724014E-004
   1.0849056603773584E-002   1.4150943396226416E-003   2.5723123834720267E-004
   1.1792452830188678E-002   1.4150943396226416E-003   2.8397023186144322E-004
   1.2735849056603772E-002   1.4150943396226416E-003   3.0886056101245399E-004
   1.3679245283018867E-002   1.4150943396226416E-003   3.3167904466120923E-004
   1.4622641509433961E-002   1.4150943396226416E-003   3.5227757461947534E-004
   1.5566037735849055E-002   1.4150943396226416E-003   3.7057295877924843E-004
   1.6509433962264151E-002   1.4150943396226416E-003   3.8653704827784798E-004
   1.7452830188679245E-002   1.4150943396226416E-003   4.0018725940687584E-004
   1.8396226415094339E-002   1.4150943396226416E-003   4.1157758283812427E-004
   1.9339622641509433E-002   1.4150943396226416E-003   4.2079015551702828E-004
   2.0283018867924527E-002   1.4150943396226416E-003   4.2792746141048505E-004
   2.1226415094339621E-002   1.4150943396226416E-003   4.3310519658233671E-004
   2.2169811320754716E-002   1.4150943396226416E-003   4.3644564075290461E-004
   2.3113207547169810E-002   1.4150943396226416E-003   4.3807150152188739E-004
   2.4056603773584904E-002   1.4150943396226416E-003   4.3810294686878162E-004
   2.4999999999999998E-002   1.4150943396226416E-003   4.3665023428935670E-004
   2.5943396226415092E-002   1.4150943396226416E-003   4.3380954471449162E-004
   2.6886792452830186E-002   1.4150943396226416E-003   4.2966497454700143E-004
   2.7830188679245280E-002   1.4150943396226416E-003   4.2428422481730185E-004
   2.8773584905660374E-002   1.4150943396226416E-003   4.1771766245190010E-004
   2.9716981132075469E-002   1.4150943396226416E-003   4.0999755097701580E-004
   3.0660377358490563E-002   1.4150943396226416E-003   4.0113754437687006E-004
   3.1603773584905660E-002   1.4150943396226416E-003   3.9113271738226257E-004
   3.2547169811320754E-002   1.4150943396226416E-003   3.7996021131930265E-004
   3.3490566037735849E-002   1.4150943396226416E-003   3.6758058212635737E-004
   3.4433962264150943E-002   1.4150943396226416E-003   3.5393998089465998E-004
   3.5377358490566037E-002   1.4150943396226416E-003   3.3897334353157207E-004
   3.6320754716981131E-002   1.4150943396226416E-003   3.2260882867008996E-004
   3.7264150943396225E-002   1.4150943396226416E-003   3.0477382993734947E-004
   3.8207547169811319E-002   1.4150943396226416E-003   2.8540300594700422E-004
   3.9150943396226413E-002   1.4150943396226416E-003   2.6444892858620671E-004
   4.0094339622641507E-002   1.4150943396226416E-003   2.4189615841156654E-004
   4.1037735849056602E-002   1.4150943396226416E-003   2.1777982528669868E-004
   4.1981132075471696E-002   1.4150943396226416E-003   1.9221010607553047E-004
   4.2924528301886790E-002   1.4150943396226416E-003   1.6540427177416986E-004
   4.3867924528301884E-002   1.4150943396226416E-003   1.3772816658302319E-004
   4.4811320754716978E-002   1.4150943396226416E-003   1.0974872829430855E-004
   4.5754716981132072E-002   1.4150943396226416E-003   8.2294584157587382E-005
   4.6698113207547166E-002   1.4150943396226416E-003   5.6504655231929884E-005
   4.7641509433962261E-002   1.4150943396226416E-003   3.3830624349395975E-005
   4.8584905660377355E-002   1.4150943396226416E-003   1.5931916759921802E-005
   4.9528301886792449E-002   1.4150943396226416E-003   3.8990047975342065E-006
   5.0000000000000003E-002   1.4150943396226416E-003   0.0000000000000000     
   0.0000000000000000        2.3584905660377362E-003   0.0000000000000000     
   4.7169811320754717E-004   2.3584905660377362E-003   2.7805950376590050E-006
   1.4150943396226416E-003   2.3584905660377362E-003   1.7079799202385661E-005
   2.3584905660377362E-003   2.3584905660377362E-003   3.8621246072699443E-005
   3.3018867924528303E-003   2.3584905660377362E-003   6.5933190915377156E-005
   4.2452830188679245E-003   2.3584905660377362E-003   9.8499135140764552E-005
   5.1886792452830186E-003   2.3584905660377362E-003   1.3558234483363677E-004
   6.1320754716981127E-003   2.3584905660377362E-003   1.7611396335543342E-004
   7.0754716981132068E-003   2.3584905660377362E-003   2.1892638649932710E-004
   8.0188679245283018E-003   2.3584905660377362E-003   2.6289941913206893E-004
   8.9622641509433960E-003   2.3584905660377362E-003   3.0701781270341550E-004
   9.9056603773584901E-003   2.3584905660377362E-003   3.5039609095850505E-004
   1.0849056603773584E-002   2.3584905660377362E-003   3.9228734035770806E-004
   1.1792452830188678E-002   2.3584905660377362E-003   4.3208179630805483E-004
   1.2735849056603772E-002   2.3584905660377362E-003   4.6929963240883017E-004
   1.3679245283018867E-002   2.3584905660377362E-003   5.0358064635081141E-004
   1.4622641509433961E-002   2.3584905660377362E-003   5.3467228860157952E-004
   1.5566037735849055E-002   2.3584905660377362E-003   5.6241688433277231E-004
   1.6509433962264151E-002   2.3584905660377362E-003   5.8673860004356958E-004
   1.7452830188679245E-002   2.3584905660377362E-003   6.0763053195970454E-004
   1.8396226415094339E-002   2.3584905660377362E-003   6.2514218476791914E-004
   1.9339622641509433E-002   2.3584905660377362E-003   6.3936753790562418E-004
   2.0283018867924527E-002   2.3584905660377362E-003   6.5043385700598718E-004
   2.1226415094339621E-002   2.3584905660377362E-003   6.5849135691901548E-004
   2.2169811320754716E-002   2.3584905660377362E-003   6.6370357297855238E-004
   2.3113207547169810E-002   2.3584905660377362E-003   6.6623840038468709E-004
   2.4056603773584904E-002   2.3584905660377362E-003   6.6626300490443108E-004
   2.4999999999999998E-002   2.3584905660377362E-003   6.6393304800837919E-004
   2.5943396226415092E-002   2.3584905660377362E-003   6.5938749847282302E-004
   2.6886792452830186E-002   2.3584905660377362E-003   6.5274962761036417E-004
   2.7830188679245280E-002   2.3584905660377362E-003   6.4412155261898659E-004
   2.8773584905660374E-002   2.3584905660377362E-003   6.3358254511310553E-004
   2.9716981132075469E-002   2.3584905660377362E-003   6.2118779692377549E-004
   3.0660377358490563E-002   2.3584905660377362E-003   6.0696781470165914E-004
   3.1603773584905660E-002   2.3584905660377362E-003   5.9092875706964049E-004
   3.2547169811320754E-002   2.3584905660377362E-003   5.7305382693360624E-004
   3.3490566037735849E-002   2.3584905660377362E-003   5.5330585936834225E-004
   3.4433962264150943E-002   2.3584905660377362E-003   5.3163130916189939E-004
   3.5377358490566037E-002   2.3584905660377362E-003   5.0796590805633703E-004
   3.6320754716981131E-002   2.3584905660377362E-003   4.8224234549945399E-004
   3.7264150943396225E-002   2.3584905660377362E-003   4.5440043391782153E-004
   3.8207547169811319E-002   2.3584905660377362E-003   4.2440035002050988E-004
   3.9150943396226413E-002   2.3584905660377362E-003   3.9223969240988232E-004
   4.0094339622641507E-002   2.3584905660377362E-003   3.5797524428562245E-004
   4.1037735849056602E-002   2.3584905660377362E-003   3.2175042538929637E-004
   4.1981132075471696E-002   2.3584905660377362E-003   2.8382930359723750E-004
   4.2924528301886790E-002   2.3584905660377362E-003   2.4463733118800375E-004
   4.3867924528301884E-002   2.3584905660377362E-003   2.0480707206182400E-004
   4.4811320754716978E-002   2.3584905660377362E-003   1.6522267598383615E-004
   4.5754716981132072E-002   2.3584905660377362E-003   1.2704193285896853E-004
   4.6698113207547166E-002   2.3584905660377362E-003   9.1632723331816650E-005
   4.7641509433962261E-002   2.3584905660377362E-003   6.0321802294195069E-005
   4.8584905660377355E-002   2.3584905660377362E-003   3.3871735121820419E-005
   4.9528301886792449E-002   2.3584905660377362E-003   1.1309921591917717E-005
   5.0000000000000003E-002   2.3584905660377362E-003   0.0000000000000000     
   0.0000000000000000        3.3018867924528303E-003   0.0000000000000000     
   4.7169811320754717E-004   3.3018867924528303E-003   9.7774915774213737E-006
   1.4150943396226416E-003   3.3018867924528303E-003   3.5372104980971405E-005
   2.3584905660377362E-003   3.3018867924528303E-003   6.7015703191138329E-005
   3.3018867924528303E-003   3.3018867924528303E-003   1.0389829191065404E-004
   4.2452830188679245E-003   3.3018867924528303E-003   1.4564628089543545E-004
   5.1886792452830186E-003   3.3018867924528303E-003   1.9186298624090063E-004
   6.1320754716981127E-003   3.3018867924528303E-003   2.4172241707022570E-004
   7.0754716981132068E-003   3.3018867924528303E-003   2.9414345170527601E-004
   8.0188679245283018E-003   3.3018867924528303E-003   3.4797677594533273E-004
   8.9622641509433960E-003   3.3018867924528303E-003   4.0210588793873533E-004
   9.9056603773584901E-003   3.3018867924528303E-003   4.5550687990210045E-004
   1.0849056603773584E-002   3.3018867924528303E-003   5.0728195743843371E-004
   1.1792452830188678E-002   3.3018867924528303E-003   5.5667363779363013E-004
   1.2735849056603772E-002   3.3018867924528303E-003   6.0306668926457540E-004
   1.3679245283018867E-002   3.3018867924528303E-003   6.4598273986799350E-004
   1.4622641509433961E-002   3.3018867924528303E-003   6.8507049760017284E-004
   1.5566037735849055E-002   3.3018867924528303E-003   7.2009341100922751E-004
   1.6509433962264151E-002   3.3018867924528303E-003   7.5091596000425730E-004
   1.7452830188679245E-002   3.3018867924528303E-003   7.7748937004151427E-004
   1.8396226415094339E-002   3.3018867924528303E-003   7.9983729312374063E-004
   1.9339622641509433E-002   3.3018867924528303E-003   8.1804183949486830E-004
   2.0283018867924527E-002   3.3018867924528303E-003   8.3223024841829710E-004
   2.1226415094339621E-002   3.3018867924528303E-003   8.4256239884159814E-004
   2.2169811320754716E-002   3.3018867924528303E-003   8.4921908940818313E-004
   2.3113207547169810E-002   3.3018867924528303E-003   8.5239110959297118E-004
   2.4056603773584904E-002   3.3018867924528303E-003   8.5227222881148208E-004
   2.4999999999999998E-002   3.3018867924528303E-003   8.4904623071934196E-004
   2.5943396226415092E-002   3.3018867924528303E-003   8.4288226182247959E-004
   2.6886792452830186E-002   3.3018867924528303E-003   8.3393280837641660E-004
   2.7830188679245280E-002   3.3018867924528303E-003   8.2232816730889123E-004
   2.8773584905660374E-002   3.3018867924528303E-003   8.0817406310255567E-004
   2.9716981132075469E-002   3.3018867924528303E-003   7.9155007939371786E-004
   3.0660377358490563E-002   3.3018867924528303E-003   7.7250914153618718E-004
   3.1603773584905660E-002   3.3018867924528303E-003   7.5107833640137049E-004
   3.2547169811320754E-002   3.3018867924528303E-003   7.2726121460972841E-004
   3.3490566037735849E-002   3.3018867924528303E-003   7.0104176278328815E-004
   3.4433962264150943E-002   3.3018867924528303E-003   6.7239030122459933E-004
   3.5377358490566037E-002   3.3018867924528303E-003   6.4127163135930003E-004
   3.6320754716981131E-002   3.3018867924528303E-003   6.0765583635371666E-004
   3.7264150943396225E-002   3.3018867924528303E-003   5.7153222274699482E-004
   3.8207547169811319E-002   3.3018867924528303E-003   5.3292696327558535E-004
   3.9150943396226413E-002   3.3018867924528303E-003   4.9192502238040649E-004
   4.0094339622641507E-002   3.3018867924528303E-003   4.4869683129148736E-004
   4.1037735849056602E-002   3.3018867924528303E-003   4.0352974809312186E-004
   4.1981132075471696E-002   3.3018867924528303E-003   3.5686317648885312E-004
   4.2924528301886790E-002   3.3018867924528303E-003   3.0932343752235148E-004
   4.3867924528301884E-002   3.3018867924528303E-003   2.6174862660752603E-004
   4.4811320754716978E-002   3.3018867924528303E-003   2.1518206719198260E-004
   4.5754716981132072E-002   3.3018867924528303E-003   1.7078654370962618E-004
   4.6698113207547166E-002   3.3018867924528303E-003   1.2958185950012147E-004
   4.7641509433962261E-002   3.3018867924528303E-003   9.1920128801415186E-005
   4.8584905660377355E-002   3.3018867924528303E-003   5.6811165425795047E-005
   4.9528301886792449E-002   3.3018867924528303E-003   2.1090563424181537E-005
   5.0000000000000003E-002   3.3018867924528303E-003   0.0000000000000000     
   0.0000000000000000        4.2452830188679245E-003   0.0000000000000000     
   4.7169811320754717E-004   4.2452830188679245E-003   1.8178929884997061E-005
   1.4150943396226416E-003   4.2452830188679245E-003   5.7057886230347157E-005
   2.3584905660377362E-003   4.2452830188679245E-003   9.9736214984085433E-005
   3.3018867924528303E-003   4.2452830188679245E-003   1.4611269879791859E-004
   4.2452830188679245E-003   4.2452830188679245E-003   1.9610784615831616E-004
   5.1886792452830186E-003   4.2452830188679245E-003   2.4970571174136346E-004
   6.1320754716981127E-003   4.2452830188679245E-003   3.0645442013164042E-004
   7.0754716981132068E-003   4.2452830188679245E-003   3.6554951123383723E-004
   8.0188679245283018E-003   4.2452830188679245E-003   4.2600579484889728E-004
   8.9622641509433960E-003   4.2452830188679245E-003   4.8677361134791979E-004
   9.9056603773584901E-003   4.2452830188679245E-003   5.4682473810005938E-004
   1.0849056603773584E-002   4.2452830188679245E-003   6.0521156852289134E-004
   1.1792452830188678E-002   4.2452830188679245E-003   6.6110153646906859E-004
   1.2735849056603772E-002   4.2452830188679245E-003   7.1379346965964299E-004
   1.3679245283018867E-002   4.2452830188679245E-003   7.6272189424699108E-004
   1.4622641509433961E-002   4.2452830188679245E-003   8.0745345028719584E-004
   1.5566037735849055E-002   4.2452830188679245E-003   8.4767826128901119E-004
   1.6509433962264151E-002   4.2452830188679245E-003   8.8319821011717981E-004
   1.7452830188679245E-002   4.2452830188679245E-003   9.1391345740139132E-004
   1.8396226415094339E-002   4.2452830188679245E-003   9.3980812518616459E-004
   1.9339622641509433E-002   4.2452830188679245E-003   9.6093579479561290E-004
   2.0283018867924527E-002   4.2452830188679245E-003   9.7740529206571600E-004
   2.1226415094339621E-002   4.2452830188679245E-003   9.8936709418742013E-004
   2.2169811320754716E-002   4.2452830188679245E-003   9.9700043829593237E-004
   2.3113207547169810E-002   4.2452830188679245E-003   1.0005012794698411E-003
   2.4056603773584904E-002   4.2452830188679245E-003   1.0000735778370009E-003
   2.4999999999999998E-002   4.2452830188679245E-003   9.9591542453954848E-004
   2.5943396226415092E-002   4.2452830188679245E-003   9.8821576753569166E-004
   2.6886792452830186E-002   4.2452830188679245E-003   9.7714843963686354E-004
   2.7830188679245280E-002   4.2452830188679245E-003   9.6286721752318323E-004
   2.8773584905660374E-002   4.2452830188679245E-003   9.4550283329511756E-004
   2.9716981132075469E-002   4.2452830188679245E-003   9.2516122001162489E-004
   3.0660377358490563E-002   4.2452830188679245E-003   9.0192325519878008E-004
   3.1603773584905660E-002   4.2452830188679245E-003   8.7584620619087807E-004
   3.2547169811320754E-002   4.2452830188679245E-003   8.4696704836494997E-004
   3.3490566037735849E-002   4.2452830188679245E-003   8.1530787627688659E-004
   3.4433962264150943E-002   4.2452830188679245E-003   7.8088368111899618E-004
   3.5377358490566037E-002   4.2452830188679245E-003   7.4371281667658920E-004
   3.6320754716981131E-002   4.2452830188679245E-003   7.0383051329022403E-004
   3.7264150943396225E-002   4.2452830188679245E-003   6.6130580016174301E-004
   3.8207547169811319E-002   4.2452830188679245E-003   6.1626210927209735E-004
   3.9150943396226413E-002   4.2452830188679245E-003   5.6890155705394553E-004
   4.0094339622641507E-002   4.2452830188679245E-003   5.1953223269889570E-004
   4.1037735849056602E-002   4.2452830188679245E-003   4.6859637919495831E-004
   4.1981132075471696E-002   4.2452830188679245E-003   4.1669438061803194E-004
   4.2924528301886790E-002   4.2452830188679245E-003   3.6459361972116113E-004
   4.3867924528301884E-002   4.2452830188679245E-003   3.1320090105887852E-004
   4.4811320754716978E-002   4.2452830188679245E-003   2.6346132142774146E-004
   4.5754716981132072E-002   4.2452830188679245E-003   2.1612486504343838E-004
   4.6698113207547166E-002   4.2452830188679245E-003   1.7131218177785930E-004
   4.7641509433962261E-002   4.2452830188679245E-003   1.2792201307952738E-004
   4.8584905660377355E-002   4.2452830188679245E-003   8.3164602655703789E-005
   4.9528301886792449E-002   4.2452830188679245E-003   3.2185105577597023E-005
   5.0000000000000003E-002   4.2452830188679245E-003   0.0000000000000000     
   0.0000000000000000        5.1886792452830186E-003   0.0000000000000000     
   4.7169811320754717E-004   5.1886792452830186E-003   2.7927610519624455E-005
   1.4150943396226416E-003   5.1886792452830186E-003   8.2220516413004219E-005
   2.3584905660377362E-003   5.1886792452830186E-003   1.3706901147317525E-004
   3.3018867924528303E-003   5.1886792452830186E-003   1.9310614910520886E-004
   4.2452830188679245E-003   5.1886792452830186E-003   2.5071979991350294E-004
   5.1886792452830186E-003   5.1886792452830186E-003   3.1035331821356376E-004
   6.1320754716981127E-003   5.1886792452830186E-003   3.7202111641734212E-004
   7.0754716981132068E-003   5.1886792452830186E-003   4.3532782954730157E-004
   8.0188679245283018E-003   5.1886792452830186E-003   4.9960381221791927E-004
   8.9622641509433960E-003   5.1886792452830186E-003   5.6401339848359056E-004
   9.9056603773584901E-003   5.1886792452830186E-003   6.2765212991210833E-004
   1.0849056603773584E-002   5.1886792452830186E-003   6.8962574824239797E-004
   1.1792452830188678E-002   5.1886792452830186E-003   7.4910490931377575E-004
   1.2735849056603772E-002   5.1886792452830186E-003   8.0535878693357705E-004
   1.3679245283018867E-002   5.1886792452830186E-003   8.5777275531779542E-004
   1.4622641509433961E-002   5.1886792452830186E-003   9.0585460751634722E-004
   1.5566037735849055E-002   5.1886792452830186E-003   9.4923281765112166E-004
   1.6509433962264151E-002   5.1886792452830186E-003   9.8764948560995801E-004
   1.7452830188679245E-002   5.1886792452830186E-003   1.0209498798867016E-003
   1.8396226415094339E-002   5.1886792452830186E-003   1.0490699515821678E-003
   1.9339622641509433E-002   5.1886792452830186E-003   1.0720228055786560E-003
   2.0283018867924527E-002   5.1886792452830186E-003   1.0898848454117265E-003
   2.1226415094339621E-002   5.1886792452830186E-003   1.1027821107875474E-003
   2.2169811320754716E-002   5.1886792452830186E-003   1.1108771248283097E-003
   2.3113207547169810E-002   5.1886792452830186E-003   1.1143565498859544E-003
   2.4056603773584904E-002   5.1886792452830186E-003   1.1134208996782834E-003
   2.4999999999999998E-002   5.1886792452830186E-003   1.1082714543315861E-003
   2.5943396226415092E-002   5.1886792452830186E-003   1.0991079575768791E-003
   2.6886792452830186E-002   5.1886792452830186E-003   1.0861190344194560E-003
   2.7830188679245280E-002   5.1886792452830186E-003   1.0694780991475895E-003
   2.8773584905660374E-002   5.1886792452830186E-003   1.0493398787927769E-003
   2.9716981132075469E-002   5.1886792452830186E-003   1.0258386285430319E-003
   3.0660377358490563E-002   5.1886792452830186E-003   9.9908827882917543E-004
   3.1603773584905660E-002   5.1886792452830186E-003   9.6918460595144971E-004
   3.2547169811320754E-002   5.1886792452830186E-003   9.3620960854976041E-004
   3.3490566037735849E-002   5.1886792452830186E-003   9.0023831419958446E-004
   3.4433962264150943E-002   5.1886792452830186E-003   8.6134825683889722E-004
   3.5377358490566037E-002   5.1886792452830186E-003   8.1963186038605648E-004
   3.6320754716981131E-002   5.1886792452830186E-003   7.7521190386145361E-004
   3.7264150943396225E-002   5.1886792452830186E-003   7.2826006903914679E-004
   3.8207547169811319E-002   5.1886792452830186E-003   6.7901817587582918E-004
   3.9150943396226413E-002   5.1886792452830186E-003   6.2782089635463436E-004
   4.0094339622641507E-002   5.1886792452830186E-003   5.7511715814602751E-004
   4.1037735849056602E-002   5.1886792452830186E-003   5.2148453219076608E-004
   4.1981132075471696E-002   5.1886792452830186E-003   4.6762578349676800E-004
   4.2924528301886790E-002   5.1886792452830186E-003   4.1432855923742253E-004
   4.3867924528301884E-002   5.1886792452830186E-003   3.6235855881565934E-004