 title=v
 variables=x,y,v
 zone i=         171 ,j=         171
 
   0.0000000000000000        0.0000000000000000        0.0000000000000000     
   6.4112426035502961E-004   0.0000000000000000        0.0000000000000000     
   1.9233727810650889E-003   0.0000000000000000        0.0000000000000000     
   3.2056213017751479E-003   0.0000000000000000        0.0000000000000000     
   4.4878698224852069E-003   0.0000000000000000        0.0000000000000000     
   5.7701183431952659E-003   0.0000000000000000        0.0000000000000000     
   7.0523668639053249E-003   0.0000000000000000        0.0000000000000000     
   8.3346153846153848E-003   0.0000000000000000        0.0000000000000000     
   9.6168639053254446E-003   0.0000000000000000        0.0000000000000000     
   1.0899112426035504E-002   0.0000000000000000        0.0000000000000000     
   1.2181360946745564E-002   0.0000000000000000        0.0000000000000000     
   1.3463609467455624E-002   0.0000000000000000        0.0000000000000000     
   1.4745857988165684E-002   0.0000000000000000        0.0000000000000000     
   1.6028106508875744E-002   0.0000000000000000        0.0000000000000000     
   1.7310355029585802E-002   0.0000000000000000        0.0000000000000000     
   1.8592603550295860E-002   0.0000000000000000        0.0000000000000000     
   1.9874852071005918E-002   0.0000000000000000        0.0000000000000000     
   2.1157100591715976E-002   0.0000000000000000        0.0000000000000000     
   2.2439349112426035E-002   0.0000000000000000        0.0000000000000000     
   2.3721597633136093E-002   0.0000000000000000        0.0000000000000000     
   2.5003846153846151E-002   0.0000000000000000        0.0000000000000000     
   2.6286094674556209E-002   0.0000000000000000        0.0000000000000000     
   2.7568343195266267E-002   0.0000000000000000        0.0000000000000000     
   2.8850591715976325E-002   0.0000000000000000        0.0000000000000000     
   3.0132840236686383E-002   0.0000000000000000        0.0000000000000000     
   3.1415088757396445E-002   0.0000000000000000        0.0000000000000000     
   3.2697337278106503E-002   0.0000000000000000        0.0000000000000000     
   3.3979585798816561E-002   0.0000000000000000        0.0000000000000000     
   3.5261834319526619E-002   0.0000000000000000        0.0000000000000000     
   3.6544082840236677E-002   0.0000000000000000        0.0000000000000000     
   3.7826331360946736E-002   0.0000000000000000        0.0000000000000000     
   3.9108579881656794E-002   0.0000000000000000        0.0000000000000000     
   4.0390828402366852E-002   0.0000000000000000        0.0000000000000000     
   4.1673076923076910E-002   0.0000000000000000        0.0000000000000000     
   4.2955325443786968E-002   0.0000000000000000        0.0000000000000000     
   4.4237573964497026E-002   0.0000000000000000        0.0000000000000000     
   4.5519822485207084E-002   0.0000000000000000        0.0000000000000000     
   4.6802071005917142E-002   0.0000000000000000        0.0000000000000000     
   4.8084319526627201E-002   0.0000000000000000        0.0000000000000000     
   4.9366568047337259E-002   0.0000000000000000        0.0000000000000000     
   5.0648816568047317E-002   0.0000000000000000        0.0000000000000000     
   5.1931065088757375E-002   0.0000000000000000        0.0000000000000000     
   5.3213313609467433E-002   0.0000000000000000        0.0000000000000000     
   5.4495562130177491E-002   0.0000000000000000        0.0000000000000000     
   5.5777810650887549E-002   0.0000000000000000        0.0000000000000000     
   5.7060059171597607E-002   0.0000000000000000        0.0000000000000000     
   5.8342307692307666E-002   0.0000000000000000        0.0000000000000000     
   5.9624556213017724E-002   0.0000000000000000        0.0000000000000000     
   6.0906804733727782E-002   0.0000000000000000        0.0000000000000000     
   6.2189053254437840E-002   0.0000000000000000        0.0000000000000000     
   6.3471301775147898E-002   0.0000000000000000        0.0000000000000000     
   6.4753550295857956E-002   0.0000000000000000        0.0000000000000000     
   6.6035798816568014E-002   0.0000000000000000        0.0000000000000000     
   6.7318047337278072E-002   0.0000000000000000        0.0000000000000000     
   6.8600295857988131E-002   0.0000000000000000        0.0000000000000000     
   6.9882544378698189E-002   0.0000000000000000        0.0000000000000000     
   7.1164792899408247E-002   0.0000000000000000        0.0000000000000000     
   7.2447041420118305E-002   0.0000000000000000        0.0000000000000000     
   7.3729289940828363E-002   0.0000000000000000        0.0000000000000000     
   7.5011538461538421E-002   0.0000000000000000        0.0000000000000000     
   7.6293786982248479E-002   0.0000000000000000        0.0000000000000000     
   7.7576035502958537E-002   0.0000000000000000        0.0000000000000000     
   7.8858284023668596E-002   0.0000000000000000        0.0000000000000000     
   8.0140532544378654E-002   0.0000000000000000        0.0000000000000000     
   8.1422781065088712E-002   0.0000000000000000        0.0000000000000000     
   8.2705029585798770E-002   0.0000000000000000        0.0000000000000000     
   8.3987278106508828E-002   0.0000000000000000        0.0000000000000000     
   8.5269526627218886E-002   0.0000000000000000        0.0000000000000000     
   8.6551775147928944E-002   0.0000000000000000        0.0000000000000000     
   8.7834023668639002E-002   0.0000000000000000        0.0000000000000000     
   8.9116272189349061E-002   0.0000000000000000        0.0000000000000000     
   9.0398520710059119E-002   0.0000000000000000        0.0000000000000000     
   9.1680769230769177E-002   0.0000000000000000        0.0000000000000000     
   9.2963017751479235E-002   0.0000000000000000        0.0000000000000000     
   9.4245266272189293E-002   0.0000000000000000        0.0000000000000000     
   9.5527514792899351E-002   0.0000000000000000        0.0000000000000000     
   9.6809763313609409E-002   0.0000000000000000        0.0000000000000000     
   9.8092011834319467E-002   0.0000000000000000        0.0000000000000000     
   9.9374260355029526E-002   0.0000000000000000        0.0000000000000000     
  0.10065650887573958        0.0000000000000000        0.0000000000000000     
  0.10193875739644964        0.0000000000000000        0.0000000000000000     
  0.10322100591715970        0.0000000000000000        0.0000000000000000     
  0.10450325443786976        0.0000000000000000        0.0000000000000000     
  0.10578550295857982        0.0000000000000000        0.0000000000000000     
  0.10706775147928987        0.0000000000000000        0.0000000000000000     
  0.10834999999999993        0.0000000000000000        0.0000000000000000     
  0.10963224852070999        0.0000000000000000        0.0000000000000000     
  0.11091449704142005        0.0000000000000000        0.0000000000000000     
  0.11219674556213011        0.0000000000000000        0.0000000000000000     
  0.11347899408284016        0.0000000000000000        0.0000000000000000     
  0.11476124260355022        0.0000000000000000        0.0000000000000000     
  0.11604349112426028        0.0000000000000000        0.0000000000000000     
  0.11732573964497034        0.0000000000000000        0.0000000000000000     
  0.11860798816568040        0.0000000000000000        0.0000000000000000     
  0.11989023668639046        0.0000000000000000        0.0000000000000000     
  0.12117248520710051        0.0000000000000000        0.0000000000000000     
  0.12245473372781057        0.0000000000000000        0.0000000000000000     
  0.12373698224852063        0.0000000000000000        0.0000000000000000     
  0.12501923076923069        0.0000000000000000        0.0000000000000000     
  0.12630147928994076        0.0000000000000000        0.0000000000000000     
  0.12758372781065083        0.0000000000000000        0.0000000000000000     
  0.12886597633136090        0.0000000000000000        0.0000000000000000     
  0.13014822485207098        0.0000000000000000        0.0000000000000000     
  0.13143047337278105        0.0000000000000000        0.0000000000000000     
  0.13271272189349112        0.0000000000000000        0.0000000000000000     
  0.13399497041420119        0.0000000000000000        0.0000000000000000     
  0.13527721893491126        0.0000000000000000        0.0000000000000000     
  0.13655946745562134        0.0000000000000000        0.0000000000000000     
  0.13784171597633141        0.0000000000000000        0.0000000000000000     
  0.13912396449704148        0.0000000000000000        0.0000000000000000     
  0.14040621301775155        0.0000000000000000        0.0000000000000000     
  0.14168846153846162        0.0000000000000000        0.0000000000000000     
  0.14297071005917170        0.0000000000000000        0.0000000000000000     
  0.14425295857988177        0.0000000000000000        0.0000000000000000     
  0.14553520710059184        0.0000000000000000        0.0000000000000000     
  0.14681745562130191        0.0000000000000000        0.0000000000000000     
  0.14809970414201198        0.0000000000000000        0.0000000000000000     
  0.14938195266272206        0.0000000000000000        0.0000000000000000     
  0.15066420118343213        0.0000000000000000        0.0000000000000000     
  0.15194644970414220        0.0000000000000000        0.0000000000000000     
  0.15322869822485227        0.0000000000000000        0.0000000000000000     
  0.15451094674556234        0.0000000000000000        0.0000000000000000     
  0.15579319526627242        0.0000000000000000        0.0000000000000000     
  0.15707544378698249        0.0000000000000000        0.0000000000000000     
  0.15835769230769256        0.0000000000000000        0.0000000000000000     
  0.15963994082840263        0.0000000000000000        0.0000000000000000     
  0.16092218934911270        0.0000000000000000        0.0000000000000000     
  0.16220443786982278        0.0000000000000000        0.0000000000000000     
  0.16348668639053285        0.0000000000000000        0.0000000000000000     
  0.16476893491124292        0.0000000000000000        0.0000000000000000     
  0.16605118343195299        0.0000000000000000        0.0000000000000000     
  0.16733343195266306        0.0000000000000000        0.0000000000000000     
  0.16861568047337314        0.0000000000000000        0.0000000000000000     
  0.16989792899408321        0.0000000000000000        0.0000000000000000     
  0.17118017751479328        0.0000000000000000        0.0000000000000000     
  0.17246242603550335        0.0000000000000000        0.0000000000000000     
  0.17374467455621342        0.0000000000000000        0.0000000000000000     
  0.17502692307692350        0.0000000000000000        0.0000000000000000     
  0.17630917159763357        0.0000000000000000        0.0000000000000000     
  0.17759142011834364        0.0000000000000000        0.0000000000000000     
  0.17887366863905371        0.0000000000000000        0.0000000000000000     
  0.18015591715976378        0.0000000000000000        0.0000000000000000     
  0.18143816568047386        0.0000000000000000        0.0000000000000000     
  0.18272041420118393        0.0000000000000000        0.0000000000000000     
  0.18400266272189400        0.0000000000000000        0.0000000000000000     
  0.18528491124260407        0.0000000000000000        0.0000000000000000     
  0.18656715976331414        0.0000000000000000        0.0000000000000000     
  0.18784940828402422        0.0000000000000000        0.0000000000000000     
  0.18913165680473429        0.0000000000000000        0.0000000000000000     
  0.19041390532544436        0.0000000000000000        0.0000000000000000     
  0.19169615384615443        0.0000000000000000        0.0000000000000000     
  0.19297840236686450        0.0000000000000000        0.0000000000000000     
  0.19426065088757458        0.0000000000000000        0.0000000000000000     
  0.19554289940828465        0.0000000000000000        0.0000000000000000     
  0.19682514792899472        0.0000000000000000        0.0000000000000000     
  0.19810739644970479        0.0000000000000000        0.0000000000000000     
  0.19938964497041486        0.0000000000000000        0.0000000000000000     
  0.20067189349112494        0.0000000000000000        0.0000000000000000     
  0.20195414201183501        0.0000000000000000        0.0000000000000000     
  0.20323639053254508        0.0000000000000000        0.0000000000000000     
  0.20451863905325515        0.0000000000000000        0.0000000000000000     
  0.20580088757396522        0.0000000000000000        0.0000000000000000     
  0.20708313609467530        0.0000000000000000        0.0000000000000000     
  0.20836538461538537        0.0000000000000000        0.0000000000000000     
  0.20964763313609544        0.0000000000000000        0.0000000000000000     
  0.21092988165680551        0.0000000000000000        0.0000000000000000     
  0.21221213017751558        0.0000000000000000        0.0000000000000000     
  0.21349437869822566        0.0000000000000000        0.0000000000000000     
  0.21477662721893573        0.0000000000000000        0.0000000000000000     
  0.21605887573964580        0.0000000000000000        0.0000000000000000     
  0.21670000000000000        0.0000000000000000        0.0000000000000000     
   3.9257538664975065E-020   6.4112426035502961E-004   0.0000000000000000     
   6.4112426035502971E-004   6.4112426035502961E-004   1.9034805629600227E-004
   1.9233727810650889E-003   6.4112426035502961E-004   2.4873456248035816E-004
   3.2056213017751479E-003   6.4112426035502961E-004   2.0739906836582891E-004
   4.4878698224852069E-003   6.4112426035502961E-004   1.4167130084995818E-004
   5.7701183431952668E-003   6.4112426035502961E-004   7.7254514935713565E-005
   7.0523668639053249E-003   6.4112426035502961E-004   2.1955625013477580E-005
   8.3346153846153848E-003   6.4112426035502961E-004  -2.2586189089255989E-005
   9.6168639053254446E-003   6.4112426035502971E-004  -5.7126831996700011E-005
   1.0899112426035504E-002   6.4112426035502961E-004  -8.3388330239796333E-005
   1.2181360946745564E-002   6.4112426035502961E-004  -1.0313031815949391E-004
   1.3463609467455624E-002   6.4112426035502961E-004  -1.1770771415332033E-004
   1.4745857988165684E-002   6.4112426035502961E-004  -1.2829602657610784E-004
   1.6028106508875744E-002   6.4112426035502961E-004  -1.3586812862555797E-004
   1.7310355029585802E-002   6.4112426035502961E-004  -1.4118917883102752E-004
   1.8592603550295860E-002   6.4112426035502961E-004  -1.4485208716187334E-004
   1.9874852071005922E-002   6.4112426035502961E-004  -1.4731145187873415E-004
   2.1157100591715976E-002   6.4112426035502961E-004  -1.4891111146939025E-004
   2.2439349112426038E-002   6.4112426035502961E-004  -1.4990740192573395E-004
   2.3721597633136093E-002   6.4112426035502961E-004  -1.5048864862341442E-004
   2.5003846153846151E-002   6.4112426035502961E-004  -1.5079116229063810E-004
   2.6286094674556209E-002   6.4112426035502961E-004  -1.5091210234405937E-004
   2.7568343195266267E-002   6.4112426035502961E-004  -1.5091961282056796E-004
   2.8850591715976325E-002   6.4112426035502961E-004  -1.5086065362621094E-004
   3.0132840236686383E-002   6.4112426035502961E-004  -1.5076694206091930E-004
   3.1415088757396452E-002   6.4112426035502961E-004  -1.5065938611448040E-004
   3.2697337278106503E-002   6.4112426035502971E-004  -1.5055134203596158E-004
   3.3979585798816561E-002   6.4112426035502961E-004  -1.5045097396724052E-004
   3.5261834319526626E-002   6.4112426035502961E-004  -1.5036293992420744E-004
   3.6544082840236677E-002   6.4112426035502961E-004  -1.5028958041543738E-004
   3.7826331360946736E-002   6.4112426035502961E-004  -1.5023174500892734E-004
   3.9108579881656794E-002   6.4112426035502961E-004  -1.5018935880593682E-004
   4.0390828402366852E-002   6.4112426035502961E-004  -1.5016180436077121E-004
   4.1673076923076917E-002   6.4112426035502961E-004  -1.5014817427028650E-004
   4.2955325443786968E-002   6.4112426035502961E-004  -1.5014743421944620E-004
   4.4237573964497026E-002   6.4112426035502961E-004  -1.5015852483471294E-004
   4.5519822485207084E-002   6.4112426035502961E-004  -1.5018042233584712E-004
   4.6802071005917142E-002   6.4112426035502961E-004  -1.5021217194532199E-004
   4.8084319526627201E-002   6.4112426035502961E-004  -1.5025290360731386E-004
   4.9366568047337259E-002   6.4112426035502961E-004  -1.5030183657295000E-004
   5.0648816568047324E-002   6.4112426035502961E-004  -1.5035827724608938E-004
   5.1931065088757375E-002   6.4112426035502961E-004  -1.5042161316627039E-004
   5.3213313609467426E-002   6.4112426035502961E-004  -1.5049130503403830E-004
   5.4495562130177491E-002   6.4112426035502961E-004  -1.5056687792980192E-004
   5.5777810650887549E-002   6.4112426035502961E-004  -1.5064791249536622E-004
   5.7060059171597607E-002   6.4112426035502961E-004  -1.5073403647797060E-004
   5.8342307692307666E-002   6.4112426035502961E-004  -1.5082491683884465E-004
   5.9624556213017724E-002   6.4112426035502961E-004  -1.5092025255657640E-004
   6.0906804733727782E-002   6.4112426035502961E-004  -1.5101976815927467E-004
   6.2189053254437840E-002   6.4112426035502961E-004  -1.5112320790922469E-004
   6.3471301775147898E-002   6.4112426035502961E-004  -1.5123033066402611E-004
   6.4753550295857956E-002   6.4112426035502961E-004  -1.5134090532847405E-004
   6.6035798816568000E-002   6.4112426035502961E-004  -1.5145470686046394E-004
   6.7318047337278072E-002   6.4112426035502961E-004  -1.5157151274930572E-004
   6.8600295857988131E-002   6.4112426035502961E-004  -1.5169109997899722E-004
   6.9882544378698189E-002   6.4112426035502961E-004  -1.5181324237824081E-004
   7.1164792899408247E-002   6.4112426035502961E-004  -1.5193770837992307E-004
   7.2447041420118305E-002   6.4112426035502961E-004  -1.5206425911799129E-004
   7.3729289940828349E-002   6.4112426035502961E-004  -1.5219264686914093E-004
   7.5011538461538421E-002   6.4112426035502950E-004  -1.5232261383199593E-004
   7.6293786982248465E-002   6.4112426035502961E-004  -1.5245389119781876E-004
   7.7576035502958537E-002   6.4112426035502961E-004  -1.5258619853971407E-004
   7.8858284023668596E-002   6.4112426035502961E-004  -1.5271924348689086E-004
   8.0140532544378654E-002   6.4112426035502961E-004  -1.5285272170243767E-004
   8.1422781065088698E-002   6.4112426035502961E-004  -1.5298631713933235E-004
   8.2705029585798770E-002   6.4112426035502961E-004  -1.5311970258124075E-004
   8.3987278106508828E-002   6.4112426035502961E-004  -1.5325254045534068E-004
   8.5269526627218886E-002   6.4112426035502961E-004  -1.5338448392043756E-004
   8.6551775147928930E-002   6.4112426035502961E-004  -1.5351517820193334E-004
   8.7834023668638989E-002   6.4112426035502961E-004  -1.5364426219018981E-004
   8.9116272189349061E-002   6.4112426035502961E-004  -1.5377137025655944E-004
   9.0398520710059133E-002   6.4112426035502961E-004  -1.5389613430304180E-004
   9.1680769230769177E-002   6.4112426035502961E-004  -1.5401818600075930E-004
   9.2963017751479249E-002   6.4112426035502961E-004  -1.5413715920037854E-004
   9.4245266272189293E-002   6.4112426035502961E-004  -1.5425269251881938E-004
   9.5527514792899337E-002   6.4112426035502961E-004  -1.5436443202528042E-004
   9.6809763313609395E-002   6.4112426035502961E-004  -1.5447203403929233E-004
   9.8092011834319467E-002   6.4112426035502961E-004  -1.5457516800853943E-004
   9.9374260355029512E-002   6.4112426035502961E-004  -1.5467351939250744E-004
  0.10065650887573958        6.4112426035502961E-004  -1.5476679258160460E-004
  0.10193875739644964        6.4112426035502961E-004  -1.5485471374810181E-004
  0.10322100591715970        6.4112426035502961E-004  -1.5493703363566347E-004
  0.10450325443786976        6.4112426035502961E-004  -1.5501353014958080E-004
  0.10578550295857983        6.4112426035502961E-004  -1.5508401067266609E-004
  0.10706775147928987        6.4112426035502961E-004  -1.5514831375144819E-004
  0.10834999999999993        6.4112426035502961E-004  -1.5520630950536095E-004
  0.10963224852070999        6.4112426035502961E-004  -1.5525789749696811E-004
  0.11091449704142005        6.4112426035502961E-004  -1.5530299919176512E-004
  0.11219674556213011        6.4112426035502961E-004  -1.5534153455354306E-004
  0.11347899408284016        6.4112426035502961E-004  -1.5537337154612548E-004
  0.11476124260355022        6.4112426035502961E-004  -1.5539834142366975E-004
  0.11604349112426028        6.4112426035502961E-004  -1.5541640653492423E-004
  0.11732573964497034        6.4112426035502961E-004  -1.5542791526447218E-004
  0.11860798816568040        6.4112426035502961E-004  -1.5543141675409346E-004
  0.11989023668639044        6.4112426035502961E-004  -1.5542648273129950E-004
  0.12117248520710051        6.4112426035502961E-004  -1.5541385126218059E-004
  0.12245473372781057        6.4112426035502961E-004  -1.5539402603803810E-004
  0.12373698224852063        6.4112426035502961E-004  -1.5536722834120424E-004
  0.12501923076923069        6.4112426035502961E-004  -1.5533353379757430E-004
  0.12630147928994076        6.4112426035502961E-004  -1.5529294108992362E-004
  0.12758372781065086        6.4112426035502961E-004  -1.5524540882823985E-004
  0.12886597633136088        6.4112426035502961E-004  -1.5519087408574048E-004
  0.13014822485207100        6.4112426035502961E-004  -1.5512926028468584E-004
  0.13143047337278108        6.4112426035502961E-004  -1.5506048045037634E-004
  0.13271272189349112        6.4112426035502961E-004  -1.5498443918311085E-004
  0.13399497041420119        6.4112426035502961E-004  -1.5490103496503766E-004
  0.13527721893491126        6.4112426035502961E-004  -1.5481016375757151E-004
  0.13655946745562134        6.4112426035502971E-004  -1.5471172441550006E-004
  0.13784171597633141        6.4112426035502961E-004  -1.5460562637077913E-004
  0.13912396449704148        6.4112426035502971E-004  -1.5449179993601899E-004
  0.14040621301775155        6.4112426035502961E-004  -1.5437020963337641E-004
  0.14168846153846165        6.4112426035502961E-004  -1.5424087082532251E-004
  0.14297071005917167        6.4112426035502961E-004  -1.5410387007067821E-004
  0.14425295857988177        6.4112426035502961E-004  -1.5395938948375640E-004
  0.14553520710059184        6.4112426035502961E-004  -1.5380773544053876E-004
  0.14681745562130194        6.4112426035502961E-004  -1.5364937183943859E-004
  0.14809970414201196        6.4112426035502961E-004  -1.5348495816884763E-004
  0.14938195266272206        6.4112426035502961E-004  -1.5331539245759038E-004
  0.15066420118343213        6.4112426035502971E-004  -1.5314185906391595E-004
  0.15194644970414220        6.4112426035502961E-004  -1.5296588121399842E-004
  0.15322869822485227        6.4112426035502971E-004  -1.5278937790030351E-004
  0.15451094674556234        6.4112426035502971E-004  -1.5261472459237793E-004
  0.15579319526627244        6.4112426035502961E-004  -1.5244481695647258E-004
  0.15707544378698252        6.4112426035502961E-004  -1.5228313650702082E-004
  0.15835769230769259        6.4112426035502950E-004  -1.5213381676409040E-004
  0.15963994082840266        6.4112426035502971E-004  -1.5200170811468754E-004
  0.16092218934911270        6.4112426035502950E-004  -1.5189243932109997E-004
  0.16220443786982280        6.4112426035502961E-004  -1.5181247311398435E-004
  0.16348668639053285        6.4112426035502950E-004  -1.5176915303903934E-004
  0.16476893491124292        6.4112426035502961E-004  -1.5177073836519634E-004
  0.16605118343195299        6.4112426035502961E-004  -1.5182642369286108E-004
  0.16733343195266306        6.4112426035502961E-004  -1.5194633969188481E-004
  0.16861568047337314        6.4112426035502961E-004  -1.5214153160754914E-004
  0.16989792899408318        6.4112426035502961E-004  -1.5242391249699851E-004
  0.17118017751479328        6.4112426035502961E-004  -1.5280618896831315E-004
  0.17246242603550338        6.4112426035502961E-004  -1.5330175876501368E-004
  0.17374467455621342        6.4112426035502961E-004  -1.5392458185300141E-004
  0.17502692307692350        6.4112426035502961E-004  -1.5468903055107158E-004
  0.17630917159763354        6.4112426035502961E-004  -1.5560973103541712E-004
  0.17759142011834364        6.4112426035502961E-004  -1.5670141982433968E-004
  0.17887366863905371        6.4112426035502961E-004  -1.5797883612872756E-004
  0.18015591715976378        6.4112426035502961E-004  -1.5945662846909587E-004
  0.18143816568047388        6.4112426035502961E-004  -1.6114938124856416E-004
  0.18272041420118390        6.4112426035502961E-004  -1.6307221476457399E-004
  0.18400266272189400        6.4112426035502961E-004  -1.6523900298264741E-004
  0.18528491124260404        6.4112426035502961E-004  -1.6764384373699185E-004
  0.18656715976331414        6.4112426035502961E-004  -1.7023249812203944E-004
  0.18784940828402422        6.4112426035502961E-004  -1.7299282626445428E-004
  0.18913165680473429        6.4112426035502961E-004  -1.7598020968346873E-004
  0.19041390532544436        6.4112426035502961E-004  -1.7918496054983944E-004
  0.19169615384615443        6.4112426035502961E-004  -1.8256850954003078E-004
  0.19297840236686450        6.4112426035502961E-004  -1.8608599106181882E-004
  0.19426065088757458        6.4112426035502961E-004  -1.8968780074846018E-004
  0.19554289940828468        6.4112426035502961E-004  -1.9331923131940868E-004
  0.19682514792899472        6.4112426035502961E-004  -1.9692088911079023E-004
  0.19810739644970479        6.4112426035502961E-004  -2.0042988274392875E-004
  0.19938964497041486        6.4112426035502961E-004  -2.0378169829591604E-004
  0.20067189349112496        6.4112426035502961E-004  -2.0691260021884326E-004
  0.20195414201183498        6.4112426035502961E-004  -2.0976233937421794E-004
  0.20323639053254505        6.4112426035502961E-004  -2.1227688958124023E-004
  0.20451863905325512        6.4112426035502961E-004  -2.1441088039376397E-004
  0.20580088757396520        6.4112426035502961E-004  -2.1612941810989690E-004
  0.20708313609467530        6.4112426035502961E-004  -2.1740926313773158E-004
  0.20836538461538537        6.4112426035502961E-004  -2.1823983599002466E-004
  0.20964763313609544        6.4112426035502961E-004  -2.1862275835867086E-004
  0.21092988165680551        6.4112426035502961E-004  -2.1855376124739904E-004
  0.21221213017751556        6.4112426035502961E-004  -2.1789595256706856E-004
  0.21349437869822566        6.4112426035502961E-004  -2.1558283606567204E-004
  0.21477662721893570        6.4112426035502961E-004  -2.0473509982626964E-004
  0.21605887573964580        6.4112426035502961E-004  -1.4682341485553353E-004
  0.21669999999999998        6.4112426035502961E-004   0.0000000000000000     
   1.1777261599492521E-019   1.9233727810650889E-003   0.0000000000000000     
   6.4112426035502971E-004   1.9233727810650889E-003   2.7175734480708530E-004
   1.9233727810650891E-003   1.9233727810650889E-003   5.0258100421870708E-004
   3.2056213017751484E-003   1.9233727810650887E-003   5.1313944777338220E-004
   4.4878698224852069E-003   1.9233727810650889E-003   4.2342728346476174E-004
   5.7701183431952659E-003   1.9233727810650887E-003   3.0499192824496164E-004
   7.0523668639053249E-003   1.9233727810650889E-003   1.9178198759705776E-004
   8.3346153846153848E-003   1.9233727810650889E-003   9.7536782688523906E-005
   9.6168639053254446E-003   1.9233727810650889E-003   2.5520422858734268E-005
   1.0899112426035503E-002   1.9233727810650889E-003  -2.6126866798419483E-005
   1.2181360946745564E-002   1.9233727810650891E-003  -6.1140870131842231E-005
   1.3463609467455626E-002   1.9233727810650889E-003  -8.3129149509045033E-005
   1.4745857988165684E-002   1.9233727810650889E-003  -9.5136326251571960E-005
   1.6028106508875747E-002   1.9233727810650889E-003  -9.9795220162099789E-005
   1.7310355029585802E-002   1.9233727810650887E-003  -9.9245498324247036E-005
   1.8592603550295860E-002   1.9233727810650889E-003  -9.5168735335687354E-005
   1.9874852071005918E-002   1.9233727810650889E-003  -8.8855514963037899E-005
   2.1157100591715980E-002   1.9233727810650889E-003  -8.1270548518173197E-005
   2.2439349112426035E-002   1.9233727810650889E-003  -7.3113556311058095E-005
   2.3721597633136096E-002   1.9233727810650887E-003  -6.4874308511014400E-005
   2.5003846153846151E-002   1.9233727810650889E-003  -5.6880450678212893E-005
   2.6286094674556209E-002   1.9233727810650887E-003  -4.9337672579989409E-005
   2.7568343195266267E-002   1.9233727810650889E-003  -4.2362433043990029E-005
   2.8850591715976325E-002   1.9233727810650889E-003  -3.6007876006529539E-005
   3.0132840236686380E-002   1.9233727810650889E-003  -3.0283815036198015E-005
   3.1415088757396445E-002   1.9233727810650889E-003  -2.5171752993137912E-005
   3.2697337278106503E-002   1.9233727810650889E-003  -2.0635883260517435E-005
   3.3979585798816561E-002   1.9233727810650889E-003  -1.6630931640429826E-005
   3.5261834319526619E-002   1.9233727810650889E-003  -1.3107578274999888E-005
   3.6544082840236684E-002   1.9233727810650889E-003  -1.0016070248360267E-005
   3.7826331360946742E-002   1.9233727810650887E-003  -7.3085128982708163E-006
   3.9108579881656794E-002   1.9233727810650889E-003  -4.9402192342612510E-006
   4.0390828402366852E-002   1.9233727810650889E-003  -2.8704053335085110E-006
   4.1673076923076917E-002   1.9233727810650889E-003  -1.0624453796185483E-006
   4.2955325443786968E-002   1.9233727810650889E-003   5.1615842264184449E-007
   4.4237573964497026E-002   1.9233727810650889E-003   1.8939806857291801E-006