 title=me
 variables=x,y,me
 zone i=         121 ,j=         121
 
   0.0000000000000000        0.0000000000000000        0.0000000000000000     
   4.2016806722689074E-003   0.0000000000000000        0.0000000000000000     
   1.2605042016806723E-002   0.0000000000000000        0.0000000000000000     
   2.1008403361344540E-002   0.0000000000000000        0.0000000000000000     
   2.9411764705882353E-002   0.0000000000000000        0.0000000000000000     
   3.7815126050420166E-002   0.0000000000000000        0.0000000000000000     
   4.6218487394957979E-002   0.0000000000000000        0.0000000000000000     
   5.4621848739495792E-002   0.0000000000000000        0.0000000000000000     
   6.3025210084033612E-002   0.0000000000000000        0.0000000000000000     
   7.1428571428571425E-002   0.0000000000000000        0.0000000000000000     
   7.9831932773109238E-002   0.0000000000000000        0.0000000000000000     
   8.8235294117647051E-002   0.0000000000000000        0.0000000000000000     
   9.6638655462184864E-002   0.0000000000000000        0.0000000000000000     
  0.10504201680672268        0.0000000000000000        0.0000000000000000     
  0.11344537815126049        0.0000000000000000        0.0000000000000000     
  0.12184873949579830        0.0000000000000000        0.0000000000000000     
  0.13025210084033612        0.0000000000000000        0.0000000000000000     
  0.13865546218487393        0.0000000000000000        0.0000000000000000     
  0.14705882352941174        0.0000000000000000        0.0000000000000000     
  0.15546218487394955        0.0000000000000000        0.0000000000000000     
  0.16386554621848737        0.0000000000000000        0.0000000000000000     
  0.17226890756302518        0.0000000000000000        0.0000000000000000     
  0.18067226890756299        0.0000000000000000        0.0000000000000000     
  0.18907563025210081        0.0000000000000000        0.0000000000000000     
  0.19747899159663862        0.0000000000000000        0.0000000000000000     
  0.20588235294117643        0.0000000000000000        0.0000000000000000     
  0.21428571428571425        0.0000000000000000        0.0000000000000000     
  0.22268907563025206        0.0000000000000000        0.0000000000000000     
  0.23109243697478987        0.0000000000000000        0.0000000000000000     
  0.23949579831932769        0.0000000000000000        0.0000000000000000     
  0.24789915966386550        0.0000000000000000        0.0000000000000000     
  0.25630252100840334        0.0000000000000000        0.0000000000000000     
  0.26470588235294118        0.0000000000000000        0.0000000000000000     
  0.27310924369747902        0.0000000000000000        0.0000000000000000     
  0.28151260504201686        0.0000000000000000        0.0000000000000000     
  0.28991596638655470        0.0000000000000000        0.0000000000000000     
  0.29831932773109254        0.0000000000000000        0.0000000000000000     
  0.30672268907563038        0.0000000000000000        0.0000000000000000     
  0.31512605042016822        0.0000000000000000        0.0000000000000000     
  0.32352941176470607        0.0000000000000000        0.0000000000000000     
  0.33193277310924391        0.0000000000000000        0.0000000000000000     
  0.34033613445378175        0.0000000000000000        0.0000000000000000     
  0.34873949579831959        0.0000000000000000        0.0000000000000000     
  0.35714285714285743        0.0000000000000000        0.0000000000000000     
  0.36554621848739527        0.0000000000000000        0.0000000000000000     
  0.37394957983193311        0.0000000000000000        0.0000000000000000     
  0.38235294117647095        0.0000000000000000        0.0000000000000000     
  0.39075630252100879        0.0000000000000000        0.0000000000000000     
  0.39915966386554663        0.0000000000000000        0.0000000000000000     
  0.40756302521008447        0.0000000000000000        0.0000000000000000     
  0.41596638655462231        0.0000000000000000        0.0000000000000000     
  0.42436974789916015        0.0000000000000000        0.0000000000000000     
  0.43277310924369800        0.0000000000000000        0.0000000000000000     
  0.44117647058823584        0.0000000000000000        0.0000000000000000     
  0.44957983193277368        0.0000000000000000        0.0000000000000000     
  0.45798319327731152        0.0000000000000000        0.0000000000000000     
  0.46638655462184936        0.0000000000000000        0.0000000000000000     
  0.47478991596638720        0.0000000000000000        0.0000000000000000     
  0.48319327731092504        0.0000000000000000        0.0000000000000000     
  0.49159663865546288        0.0000000000000000        0.0000000000000000     
  0.50000000000000067        0.0000000000000000        0.0000000000000000     
  0.50840336134453845        0.0000000000000000        0.0000000000000000     
  0.51680672268907624        0.0000000000000000        0.0000000000000000     
  0.52521008403361402        0.0000000000000000        0.0000000000000000     
  0.53361344537815181        0.0000000000000000        0.0000000000000000     
  0.54201680672268959        0.0000000000000000        0.0000000000000000     
  0.55042016806722738        0.0000000000000000        0.0000000000000000     
  0.55882352941176516        0.0000000000000000        0.0000000000000000     
  0.56722689075630295        0.0000000000000000        0.0000000000000000     
  0.57563025210084073        0.0000000000000000        0.0000000000000000     
  0.58403361344537852        0.0000000000000000        0.0000000000000000     
  0.59243697478991630        0.0000000000000000        0.0000000000000000     
  0.60084033613445409        0.0000000000000000        0.0000000000000000     
  0.60924369747899187        0.0000000000000000        0.0000000000000000     
  0.61764705882352966        0.0000000000000000        0.0000000000000000     
  0.62605042016806745        0.0000000000000000        0.0000000000000000     
  0.63445378151260523        0.0000000000000000        0.0000000000000000     
  0.64285714285714302        0.0000000000000000        0.0000000000000000     
  0.65126050420168080        0.0000000000000000        0.0000000000000000     
  0.65966386554621859        0.0000000000000000        0.0000000000000000     
  0.66806722689075637        0.0000000000000000        0.0000000000000000     
  0.67647058823529416        0.0000000000000000        0.0000000000000000     
  0.68487394957983194        0.0000000000000000        0.0000000000000000     
  0.69327731092436973        0.0000000000000000        0.0000000000000000     
  0.70168067226890751        0.0000000000000000        0.0000000000000000     
  0.71008403361344530        0.0000000000000000        0.0000000000000000     
  0.71848739495798308        0.0000000000000000        0.0000000000000000     
  0.72689075630252087        0.0000000000000000        0.0000000000000000     
  0.73529411764705865        0.0000000000000000        0.0000000000000000     
  0.74369747899159644        0.0000000000000000        0.0000000000000000     
  0.75210084033613422        0.0000000000000000        0.0000000000000000     
  0.76050420168067201        0.0000000000000000        0.0000000000000000     
  0.76890756302520979        0.0000000000000000        0.0000000000000000     
  0.77731092436974758        0.0000000000000000        0.0000000000000000     
  0.78571428571428537        0.0000000000000000        0.0000000000000000     
  0.79411764705882315        0.0000000000000000        0.0000000000000000     
  0.80252100840336094        0.0000000000000000        0.0000000000000000     
  0.81092436974789872        0.0000000000000000        0.0000000000000000     
  0.81932773109243651        0.0000000000000000        0.0000000000000000     
  0.82773109243697429        0.0000000000000000        0.0000000000000000     
  0.83613445378151208        0.0000000000000000        0.0000000000000000     
  0.84453781512604986        0.0000000000000000        0.0000000000000000     
  0.85294117647058765        0.0000000000000000        0.0000000000000000     
  0.86134453781512543        0.0000000000000000        0.0000000000000000     
  0.86974789915966322        0.0000000000000000        0.0000000000000000     
  0.87815126050420100        0.0000000000000000        0.0000000000000000     
  0.88655462184873879        0.0000000000000000        0.0000000000000000     
  0.89495798319327657        0.0000000000000000        0.0000000000000000     
  0.90336134453781436        0.0000000000000000        0.0000000000000000     
  0.91176470588235214        0.0000000000000000        0.0000000000000000     
  0.92016806722688993        0.0000000000000000        0.0000000000000000     
  0.92857142857142771        0.0000000000000000        0.0000000000000000     
  0.93697478991596550        0.0000000000000000        0.0000000000000000     
  0.94537815126050329        0.0000000000000000        0.0000000000000000     
  0.95378151260504107        0.0000000000000000        0.0000000000000000     
  0.96218487394957886        0.0000000000000000        0.0000000000000000     
  0.97058823529411664        0.0000000000000000        0.0000000000000000     
  0.97899159663865443        0.0000000000000000        0.0000000000000000     
  0.98739495798319221        0.0000000000000000        0.0000000000000000     
  0.99579831932773000        0.0000000000000000        0.0000000000000000     
   1.0000000000000000        0.0000000000000000        0.0000000000000000     
   0.0000000000000000        4.2016806722689074E-003   0.0000000000000000     
   4.2016806722689074E-003   4.2016806722689074E-003   6.4197139882407667E-008
   1.2605042016806723E-002   4.2016806722689074E-003   2.9225630696631487E-007
   2.1008403361344540E-002   4.2016806722689074E-003   6.1211844449141360E-007
   2.9411764705882353E-002   4.2016806722689074E-003   9.5502173892404734E-007
   3.7815126050420166E-002   4.2016806722689074E-003   1.2738592752280293E-006
   4.6218487394957979E-002   4.2016806722689074E-003   1.5376473233013404E-006
   5.4621848739495792E-002   4.2016806722689074E-003   1.7270889207318043E-006
   6.3025210084033612E-002   4.2016806722689074E-003   1.8312624082358222E-006
   7.1428571428571425E-002   4.2016806722689074E-003   1.8449671641068871E-006
   7.9831932773109238E-002   4.2016806722689074E-003   1.7668118350165750E-006
   8.8235294117647051E-002   4.2016806722689074E-003   1.5978616664426521E-006
   9.6638655462184864E-002   4.2016806722689074E-003   1.3406921691841856E-006
  0.10504201680672268        4.2016806722689074E-003   9.9870414879130673E-007
  0.11344537815126049        4.2016806722689074E-003   5.7563104690700818E-007
  0.12184873949579830        4.2016806722689074E-003   7.5212224608706719E-008
  0.13025210084033612        4.2016806722689074E-003  -4.9902214160893894E-007
  0.13865546218487393        4.2016806722689074E-003  -1.1439050972874547E-006
  0.14705882352941174        4.2016806722689074E-003  -1.8567163419037224E-006
  0.15546218487394955        4.2016806722689074E-003  -2.6352007534455227E-006
  0.16386554621848737        4.2016806722689074E-003  -3.4775521430264779E-006
  0.17226890756302518        4.2016806722689074E-003  -4.3823728275159688E-006
  0.18067226890756299        4.2016806722689074E-003  -5.3486149951179292E-006
  0.18907563025210081        4.2016806722689074E-003  -6.3755099683205240E-006
  0.19747899159663862        4.2016806722689074E-003  -7.4624906011677365E-006
  0.20588235294117643        4.2016806722689074E-003  -8.6091109145581895E-006
  0.21428571428571425        4.2016806722689074E-003  -9.8149660860519545E-006
  0.22268907563025206        4.2016806722689074E-003  -1.1079615077523216E-005
  0.23109243697478987        4.2016806722689074E-003  -1.2402507489713167E-005
  0.23949579831932769        4.2016806722689074E-003  -1.3782915668491523E-005
  0.24789915966386550        4.2016806722689074E-003  -1.5219872643559999E-005
  0.25630252100840334        4.2016806722689074E-003  -1.6712116145277361E-005
  0.26470588235294118        4.2016806722689074E-003  -1.8258038706149651E-005
  0.27310924369747902        4.2016806722689074E-003  -1.9855643697391608E-005
  0.28151260504201686        4.2016806722689074E-003  -2.1502507063807119E-005
  0.28991596638655470        4.2016806722689074E-003  -2.3195744488273080E-005
  0.29831932773109254        4.2016806722689074E-003  -2.4931983727334345E-005
  0.30672268907563038        4.2016806722689074E-003  -2.6707341899187974E-005
  0.31512605042016822        4.2016806722689074E-003  -2.8517407563748638E-005
  0.32352941176470607        4.2016806722689074E-003  -3.0357227501988647E-005
  0.33193277310924391        4.2016806722689074E-003  -3.2221298170438388E-005
  0.34033613445378175        4.2016806722689074E-003  -3.4103561870481404E-005
  0.34873949579831959        4.2016806722689074E-003  -3.5997407726529840E-005
  0.35714285714285743        4.2016806722689074E-003  -3.7895677609257755E-005
  0.36554621848739527        4.2016806722689074E-003  -3.9790677168201006E-005
  0.37394957983193311        4.2016806722689074E-003  -4.1674192151700341E-005
  0.38235294117647095        4.2016806722689074E-003  -4.3537510191475025E-005
  0.39075630252100879        4.2016806722689074E-003  -4.5371448214629396E-005
  0.39915966386554663        4.2016806722689074E-003  -4.7166385618482643E-005
  0.40756302521008447        4.2016806722689074E-003  -4.8912303303213784E-005
  0.41596638655462231        4.2016806722689074E-003  -5.0598828603126595E-005
  0.42436974789916015        4.2016806722689074E-003  -5.2215286086117267E-005
  0.43277310924369800        4.2016806722689074E-003  -5.3750754098302966E-005
  0.44117647058823584        4.2016806722689074E-003  -5.5194126812400797E-005
  0.44957983193277368        4.2016806722689074E-003  -5.6534181367101883E-005
  0.45798319327731152        4.2016806722689074E-003  -5.7759649409683032E-005
  0.46638655462184936        4.2016806722689074E-003  -5.8859292300253839E-005
  0.47478991596638720        4.2016806722689074E-003  -5.9821980528728357E-005
  0.48319327731092504        4.2016806722689074E-003  -6.0636778451151840E-005
  0.49159663865546288        4.2016806722689074E-003  -6.1293026763368415E-005
  0.50000000000000067        4.2016806722689074E-003  -6.1780438038116042E-005
  0.50840336134453845        4.2016806722689074E-003  -6.2089414977007314E-005
  0.51680672268907624        4.2016806722689074E-003  -6.2211701077882601E-005
  0.52521008403361402        4.2016806722689074E-003  -6.2141030973061437E-005
  0.53361344537815181        4.2016806722689074E-003  -6.1872532832191556E-005
  0.54201680672268959        4.2016806722689074E-003  -6.1401903415988994E-005
  0.55042016806722738        4.2016806722689074E-003  -6.0725730207146307E-005
  0.55882352941176516        4.2016806722689074E-003  -5.9841859572369112E-005
  0.56722689075630295        4.2016806722689074E-003  -5.8749627826444441E-005
  0.57563025210084073        4.2016806722689074E-003  -5.7450022011787352E-005
  0.58403361344537852        4.2016806722689074E-003  -5.5945798513839564E-005
  0.59243697478991630        4.2016806722689074E-003  -5.4241568285143997E-005
  0.60084033613445409        4.2016806722689074E-003  -5.2343853643558269E-005
  0.60924369747899187        4.2016806722689074E-003  -5.0261118524693219E-005
  0.61764705882352966        4.2016806722689074E-003  -4.8003771917835310E-005
  0.62605042016806745        4.2016806722689074E-003  -4.5584143277102838E-005
  0.63445378151260523        4.2016806722689074E-003  -4.3016428465147649E-005
  0.64285714285714302        4.2016806722689074E-003  -4.0316604934252916E-005
  0.65126050420168080        4.2016806722689074E-003  -3.7502315240987273E-005
  0.65966386554621859        4.2016806722689074E-003  -3.4592718553960260E-005
  0.66806722689075637        4.2016806722689074E-003  -3.1608310507141761E-005
  0.67647058823529416        4.2016806722689074E-003  -2.8570712545547816E-005
  0.68487394957983194        4.2016806722689074E-003  -2.5502432783148763E-005
  0.69327731092436973        4.2016806722689074E-003  -2.2426601324176347E-005
  0.70168067226890751        4.2016806722689074E-003  -1.9366683972874364E-005
  0.71008403361344530        4.2016806722689074E-003  -1.6346179274246577E-005
  0.71848739495798308        4.2016806722689074E-003  -1.3388304965759705E-005
  0.72689075630252087        4.2016806722689074E-003  -1.0515681422380267E-005
  0.73529411764705865        4.2016806722689074E-003  -7.7500216164786117E-006
  0.74369747899159644        4.2016806722689074E-003  -5.1118390961754386E-006
  0.75210084033613422        4.2016806722689074E-003  -2.6201971677593819E-006
  0.76050420168067201        4.2016806722689074E-003  -2.9257683729392372E-007
  0.76890756302520979        4.2016806722689074E-003   1.8550968885524850E-006
  0.77731092436974758        4.2016806722689074E-003   3.8092282587351828E-006
  0.78571428571428537        4.2016806722689074E-003   5.5592974685069136E-006
  0.79411764705882315        4.2016806722689074E-003   7.0976188894126379E-006
  0.80252100840336094        4.2016806722689074E-003   8.4190011123638023E-006
  0.81092436974789872        4.2016806722689074E-003   9.5206560464560571E-006
  0.81932773109243651        4.2016806722689074E-003   1.0402200998209343E-005
  0.82773109243697429        4.2016806722689074E-003   1.1065616928664033E-005
  0.83613445378151208        4.2016806722689074E-003   1.1515151712295911E-005
  0.84453781512604986        4.2016806722689074E-003   1.1757203207197030E-005
  0.85294117647058765        4.2016806722689074E-003   1.1800177053744992E-005
  0.86134453781512543        4.2016806722689074E-003   1.1654283836989791E-005
  0.86974789915966322        4.2016806722689074E-003   1.1331307985957327E-005
  0.87815126050420100        4.2016806722689074E-003   1.0844476480515005E-005
  0.88655462184873879        4.2016806722689074E-003   1.0208500217691837E-005
  0.89495798319327657        4.2016806722689074E-003   9.4396896048577780E-006
  0.90336134453781436        4.2016806722689074E-003   8.5562069152358480E-006
  0.91176470588235214        4.2016806722689074E-003   7.5784523508592163E-006
  0.92016806722688993        4.2016806722689074E-003   6.5296085334580361E-006
  0.92857142857142771        4.2016806722689074E-003   5.4363811561078078E-006
  0.93697478991596550        4.2016806722689074E-003   4.3299654402977846E-006
  0.94537815126050329        4.2016806722689074E-003   3.2472337147973241E-006
  0.95378151260504107        4.2016806722689074E-003   2.2320314433037179E-006
  0.96218487394957886        4.2016806722689074E-003   1.3360888955720649E-006
  0.97058823529411664        4.2016806722689074E-003   6.1793711869024377E-007
  0.97899159663865443        4.2016806722689074E-003   1.3607845653196019E-007
  0.98739495798319221        4.2016806722689074E-003  -6.7406458724237756E-008
  0.99579831932773000        4.2016806722689074E-003   0.0000000000000000     
   1.0000000000000000        4.2016806722689074E-003   0.0000000000000000     
   0.0000000000000000        1.2605042016806723E-002   0.0000000000000000     
   4.2016806722689074E-003   1.2605042016806723E-002   2.5092343493225599E-007
   1.2605042016806723E-002   1.2605042016806723E-002   7.7630640856765548E-007
   2.1008403361344540E-002   1.2605042016806723E-002   1.4409933634869141E-006
   2.9411764705882353E-002   1.2605042016806723E-002   2.1279629694903643E-006
   3.7815126050420166E-002   1.2605042016806723E-002   2.7430773331562211E-006
   4.6218487394957979E-002   1.2605042016806723E-002   3.2171876352687200E-006
   5.4621848739495792E-002   1.2605042016806723E-002   3.5028163577559025E-006
   6.3025210084033612E-002   1.2605042016806723E-002   3.5697305621219008E-006
   7.1428571428571425E-002   1.2605042016806723E-002   3.4007434229141917E-006
   7.9831932773109238E-002   1.2605042016806723E-002   2.9881970001804135E-006
   8.8235294117647051E-002   1.2605042016806723E-002   2.3310835474737181E-006
   9.6638655462184864E-002   1.2605042016806723E-002   1.4328512391057988E-006
  0.10504201680672268        1.2605042016806723E-002   2.9967073493854480E-007
  0.11344537815126049        1.2605042016806723E-002  -1.0607495067654282E-006
  0.12184873949579830        1.2605042016806723E-002  -2.6401136547687655E-006
  0.13025210084033612        1.2605042016806723E-002  -4.4302604596026508E-006
  0.13865546218487393        1.2605042016806723E-002  -6.4235741816787013E-006
  0.14705882352941174        1.2605042016806723E-002  -8.6132177805246527E-006
  0.15546218487394955        1.2605042016806723E-002  -1.0993253511520600E-005
  0.16386554621848737        1.2605042016806723E-002  -1.3558658326625923E-005
  0.17226890756302518        1.2605042016806723E-002  -1.6305259934345933E-005
  0.18067226890756299        1.2605042016806723E-002  -1.9229616814955373E-005
  0.18907563025210081        1.2605042016806723E-002  -2.2328860064040383E-005
  0.19747899159663862        1.2605042016806723E-002  -2.5600511411483236E-005
  0.20588235294117643        1.2605042016806723E-002  -2.9042288906511061E-005
  0.21428571428571425        1.2605042016806723E-002  -3.2651909248408312E-005
  0.22268907563025206        1.2605042016806723E-002  -3.6426893574331662E-005
  0.23109243697478987        1.2605042016806723E-002  -4.0364381683552103E-005
  0.23949579831932769        1.2605042016806723E-002  -4.4460958163854307E-005
  0.24789915966386550        1.2605042016806723E-002  -4.8712492669108957E-005
  0.25630252100840334        1.2605042016806723E-002  -5.3113995651468069E-005
  0.26470588235294118        1.2605042016806723E-002  -5.7659490148443261E-005
  0.27310924369747902        1.2605042016806723E-002  -6.2341899732607691E-005
  0.28151260504201686        1.2605042016806723E-002  -6.7152952416810779E-005
  0.28991596638655470        1.2605042016806723E-002  -7.2083100137087947E-005
  0.29831932773109254        1.2605042016806723E-002  -7.7121453376490887E-005
  0.30672268907563038        1.2605042016806723E-002  -8.2255730515191149E-005
  0.31512605042016822        1.2605042016806723E-002  -8.7472221568164578E-005
  0.32352941176470607        1.2605042016806723E-002  -9.2755766077402837E-005
  0.33193277310924391        1.2605042016806723E-002  -9.8089745041411244E-005
  0.34033613445378175        1.2605042016806723E-002  -1.0345608687506493E-004
  0.34873949579831959        1.2605042016806723E-002  -1.0883528748646875E-004
  0.35714285714285743        1.2605042016806723E-002  -1.1420644462664956E-004
  0.36554621848739527        1.2605042016806723E-002  -1.1954730670879891E-004
  0.37394957983193311        1.2605042016806723E-002  -1.2483433630516256E-004
  0.38235294117647095        1.2605042016806723E-002  -1.3004278851266895E-004
  0.39075630252100879        1.2605042016806723E-002  -1.3514680433622322E-004
  0.39915966386554663        1.2605042016806723E-002  -1.4011951917550775E-004
  0.40756302521008447        1.2605042016806723E-002  -1.4493318642278598E-004
  0.41596638655462231        1.2605042016806723E-002  -1.4955931609235957E-004
  0.42436974789916015        1.2605042016806723E-002  -1.5396882831592983E-004
  0.43277310924369800        1.2605042016806723E-002  -1.5813222146903179E-004
  0.44117647058823584        1.2605042016806723E-002  -1.6201975467147528E-004
  0.44957983193277368        1.2605042016806723E-002  -1.6560164446849572E-004
  0.45798319327731152        1.2605042016806723E-002  -1.6884827577755764E-004
  0.46638655462184936        1.2605042016806723E-002  -1.7173042838060381E-004
  0.47478991596638720        1.2605042016806723E-002  -1.7421952346186308E-004
  0.48319327731092504        1.2605042016806723E-002  -1.7628789636181543E-004
  0.49159663865546288        1.2605042016806723E-002  -1.7790909779109461E-004
  0.50000000000000067        1.2605042016806723E-002  -1.7905829094718055E-004
  0.50840336134453845        1.2605042016806723E-002  -1.7971308828390725E-004
  0.51680672268907624        1.2605042016806723E-002  -1.7985479856299399E-004
  0.52521008403361402        1.2605042016806723E-002  -1.7946771817193224E-004
  0.53361344537815181        1.2605042016806723E-002  -1.7853831589194615E-004
  0.54201680672268959        1.2605042016806723E-002  -1.7705589850069631E-004
  0.55042016806722738        1.2605042016806723E-002  -1.7501304299821318E-004
  0.55882352941176516        1.2605042016806723E-002  -1.7240598975886868E-004
  0.56722689075630295        1.2605042016806723E-002  -1.6923501139457813E-004
  0.57563025210084073        1.2605042016806723E-002  -1.6550471989794764E-004
  0.58403361344537852        1.2605042016806723E-002  -1.6122430548335624E-004
  0.59243697478991630        1.2605042016806723E-002  -1.5640771114767710E-004
  0.60084033613445409        1.2605042016806723E-002  -1.5107374532047433E-004
  0.60924369747899187        1.2605042016806723E-002  -1.4524613234070816E-004
  0.61764705882352966        1.2605042016806723E-002  -1.3895349881677869E-004
  0.62605042016806745        1.2605042016806723E-002  -1.3222929307572928E-004
  0.63445378151260523        1.2605042016806723E-002  -1.2511163474288246E-004
  0.64285714285714302        1.2605042016806723E-002  -1.1764309188177575E-004
  0.65126050420168080        1.2605042016806723E-002  -1.0987038394356175E-004
  0.65966386554621859        1.2605042016806723E-002  -1.0184400993563873E-004
  0.66806722689075637        1.2605042016806723E-002  -9.3617802660581767E-005
  0.67647058823529416        1.2605042016806723E-002  -8.5248411553472055E-005
  0.68487394957983194        1.2605042016806723E-002  -7.6794718519754488E-005
  0.69327731092436973        1.2605042016806723E-002  -6.8317193211752062E-005
  0.70168067226890751        1.2605042016806723E-002  -5.9877196349780730E-005
  0.71008403361344530        1.2605042016806723E-002  -5.1536241971239482E-005
  0.71848739495798308        1.2605042016806723E-002  -4.3355231878222123E-005
  0.72689075630252087        1.2605042016806723E-002  -3.5393678164691590E-005
  0.73529411764705865        1.2605042016806723E-002  -2.7708932905786872E-005
  0.74369747899159644        1.2605042016806723E-002  -2.0355447288439096E-005
  0.75210084033613422        1.2605042016806723E-002  -1.3384077275148837E-005
  0.76050420168067201        1.2605042016806723E-002  -6.8414335917781021E-006
  0.76890756302520979        1.2605042016806723E-002  -7.6940976836181156E-007
  0.77731092436974758        1.2605042016806723E-002   4.7941886605247112E-006
  0.78571428571428537        1.2605042016806723E-002   9.8178797301899755E-006
  0.79411764705882315        1.2605042016806723E-002   1.4278837058693787E-005
  0.80252100840336094        1.2605042016806723E-002   1.8161026113888410E-005
  0.81092436974789872        1.2605042016806723E-002   2.1454895072097096E-005
  0.81932773109243651        1.2605042016806723E-002   2.4157301235740422E-005
  0.82773109243697429        1.2605042016806723E-002   2.6271407443055175E-005
  0.83613445378151208        1.2605042016806723E-002   2.7806492423426885E-005
  0.84453781512604986        1.2605042016806723E-002   2.8777720575621692E-005
  0.85294117647058765        1.2605042016806723E-002   2.9205873892027070E-005
  0.86134453781512543        1.2605042016806723E-002   2.9117041415773740E-005
  0.86974789915966322        1.2605042016806723E-002   2.8542127860265201E-005
  0.87815126050420100        1.2605042016806723E-002   2.7516500192236485E-005
  0.88655462184873879        1.2605042016806723E-002   2.6080096838432964E-005
  0.89495798319327657        1.2605042016806723E-002   2.4277697911353375E-005
  0.90336134453781436        1.2605042016806723E-002   2.2159446606598687E-005
  0.91176470588235214        1.2605042016806723E-002   1.9781620175386783E-005
  0.92016806722688993        1.2605042016806723E-002   1.7207653896134068E-005
  0.92857142857142771        1.2605042016806723E-002   1.4509399729590604E-005
  0.93697478991596550        1.2605042016806723E-002   1.1768526128672594E-005
  0.94537815126050329        1.2605042016806723E-002   9.0778037442657614E-006
  0.95378151260504107        1.2605042016806723E-002   6.5416932030416736E-006
  0.96218487394957886        1.2605042016806723E-002   4.2750038587649918E-006
  0.97058823529411664        1.2605042016806723E-002   2.3971311587019087E-006
  0.97899159663865443        1.2605042016806723E-002   1.0168455131239156E-006
  0.98739495798319221        1.2605042016806723E-002   2.0583270494011882E-007
  0.99579831932773000        1.2605042016806723E-002   0.0000000000000000     
   1.0000000000000000        1.2605042016806723E-002   0.0000000000000000     
   0.0000000000000000        2.1008403361344540E-002   0.0000000000000000     
   4.2016806722689074E-003   2.1008403361344540E-002   3.5932698970816609E-007
   1.2605042016806723E-002   2.1008403361344540E-002   1.0458402485026477E-006
   2.1008403361344540E-002   2.1008403361344540E-002   1.8611853728212310E-006
   2.9411764705882353E-002   2.1008403361344540E-002   2.6584997192096957E-006
   3.7815126050420166E-002   2.1008403361344540E-002   3.3199466054873812E-006
   4.6218487394957979E-002   2.1008403361344540E-002   3.7558275161934996E-006
   5.4621848739495792E-002   2.1008403361344540E-002   3.9016973860506042E-006
   6.3025210084033612E-002   2.1008403361344540E-002   3.7141939295886941E-006
   7.1428571428571425E-002   2.1008403361344540E-002   3.1668094428283000E-006
   7.9831932773109238E-002   2.1008403361344540E-002   2.2460116703068622E-006
   8.8235294117647051E-002   2.1008403361344540E-002   9.4767771777492599E-007
   9.6638655462184864E-002   2.1008403361344540E-002  -7.2558870300951110E-007
  0.10504201680672268        2.1008403361344540E-002  -2.7667434074723642E-006
  0.11344537815126049        2.1008403361344540E-002  -5.1661686888842021E-006