 title=me
 variables=x,y,me
 zone i=         171 ,j=         171
 
   0.0000000000000000        0.0000000000000000        0.0000000000000000     
   2.9585798816568047E-003   0.0000000000000000        0.0000000000000000     
   8.8757396449704144E-003   0.0000000000000000        0.0000000000000000     
   1.4792899408284023E-002   0.0000000000000000        0.0000000000000000     
   2.0710059171597631E-002   0.0000000000000000        0.0000000000000000     
   2.6627218934911240E-002   0.0000000000000000        0.0000000000000000     
   3.2544378698224852E-002   0.0000000000000000        0.0000000000000000     
   3.8461538461538464E-002   0.0000000000000000        0.0000000000000000     
   4.4378698224852076E-002   0.0000000000000000        0.0000000000000000     
   5.0295857988165688E-002   0.0000000000000000        0.0000000000000000     
   5.6213017751479299E-002   0.0000000000000000        0.0000000000000000     
   6.2130177514792911E-002   0.0000000000000000        0.0000000000000000     
   6.8047337278106523E-002   0.0000000000000000        0.0000000000000000     
   7.3964497041420135E-002   0.0000000000000000        0.0000000000000000     
   7.9881656804733747E-002   0.0000000000000000        0.0000000000000000     
   8.5798816568047359E-002   0.0000000000000000        0.0000000000000000     
   9.1715976331360971E-002   0.0000000000000000        0.0000000000000000     
   9.7633136094674583E-002   0.0000000000000000        0.0000000000000000     
  0.10355029585798819        0.0000000000000000        0.0000000000000000     
  0.10946745562130181        0.0000000000000000        0.0000000000000000     
  0.11538461538461542        0.0000000000000000        0.0000000000000000     
  0.12130177514792903        0.0000000000000000        0.0000000000000000     
  0.12721893491124264        0.0000000000000000        0.0000000000000000     
  0.13313609467455625        0.0000000000000000        0.0000000000000000     
  0.13905325443786987        0.0000000000000000        0.0000000000000000     
  0.14497041420118348        0.0000000000000000        0.0000000000000000     
  0.15088757396449709        0.0000000000000000        0.0000000000000000     
  0.15680473372781070        0.0000000000000000        0.0000000000000000     
  0.16272189349112431        0.0000000000000000        0.0000000000000000     
  0.16863905325443793        0.0000000000000000        0.0000000000000000     
  0.17455621301775154        0.0000000000000000        0.0000000000000000     
  0.18047337278106515        0.0000000000000000        0.0000000000000000     
  0.18639053254437876        0.0000000000000000        0.0000000000000000     
  0.19230769230769237        0.0000000000000000        0.0000000000000000     
  0.19822485207100599        0.0000000000000000        0.0000000000000000     
  0.20414201183431960        0.0000000000000000        0.0000000000000000     
  0.21005917159763321        0.0000000000000000        0.0000000000000000     
  0.21597633136094682        0.0000000000000000        0.0000000000000000     
  0.22189349112426043        0.0000000000000000        0.0000000000000000     
  0.22781065088757405        0.0000000000000000        0.0000000000000000     
  0.23372781065088766        0.0000000000000000        0.0000000000000000     
  0.23964497041420127        0.0000000000000000        0.0000000000000000     
  0.24556213017751488        0.0000000000000000        0.0000000000000000     
  0.25147928994082847        0.0000000000000000        0.0000000000000000     
  0.25739644970414205        0.0000000000000000        0.0000000000000000     
  0.26331360946745563        0.0000000000000000        0.0000000000000000     
  0.26923076923076922        0.0000000000000000        0.0000000000000000     
  0.27514792899408280        0.0000000000000000        0.0000000000000000     
  0.28106508875739639        0.0000000000000000        0.0000000000000000     
  0.28698224852070997        0.0000000000000000        0.0000000000000000     
  0.29289940828402355        0.0000000000000000        0.0000000000000000     
  0.29881656804733714        0.0000000000000000        0.0000000000000000     
  0.30473372781065072        0.0000000000000000        0.0000000000000000     
  0.31065088757396431        0.0000000000000000        0.0000000000000000     
  0.31656804733727789        0.0000000000000000        0.0000000000000000     
  0.32248520710059148        0.0000000000000000        0.0000000000000000     
  0.32840236686390506        0.0000000000000000        0.0000000000000000     
  0.33431952662721864        0.0000000000000000        0.0000000000000000     
  0.34023668639053223        0.0000000000000000        0.0000000000000000     
  0.34615384615384581        0.0000000000000000        0.0000000000000000     
  0.35207100591715940        0.0000000000000000        0.0000000000000000     
  0.35798816568047298        0.0000000000000000        0.0000000000000000     
  0.36390532544378656        0.0000000000000000        0.0000000000000000     
  0.36982248520710015        0.0000000000000000        0.0000000000000000     
  0.37573964497041373        0.0000000000000000        0.0000000000000000     
  0.38165680473372732        0.0000000000000000        0.0000000000000000     
  0.38757396449704090        0.0000000000000000        0.0000000000000000     
  0.39349112426035449        0.0000000000000000        0.0000000000000000     
  0.39940828402366807        0.0000000000000000        0.0000000000000000     
  0.40532544378698165        0.0000000000000000        0.0000000000000000     
  0.41124260355029524        0.0000000000000000        0.0000000000000000     
  0.41715976331360882        0.0000000000000000        0.0000000000000000     
  0.42307692307692241        0.0000000000000000        0.0000000000000000     
  0.42899408284023599        0.0000000000000000        0.0000000000000000     
  0.43491124260354957        0.0000000000000000        0.0000000000000000     
  0.44082840236686316        0.0000000000000000        0.0000000000000000     
  0.44674556213017674        0.0000000000000000        0.0000000000000000     
  0.45266272189349033        0.0000000000000000        0.0000000000000000     
  0.45857988165680391        0.0000000000000000        0.0000000000000000     
  0.46449704142011750        0.0000000000000000        0.0000000000000000     
  0.47041420118343108        0.0000000000000000        0.0000000000000000     
  0.47633136094674466        0.0000000000000000        0.0000000000000000     
  0.48224852071005825        0.0000000000000000        0.0000000000000000     
  0.48816568047337183        0.0000000000000000        0.0000000000000000     
  0.49408284023668542        0.0000000000000000        0.0000000000000000     
  0.49999999999999900        0.0000000000000000        0.0000000000000000     
  0.50591715976331264        0.0000000000000000        0.0000000000000000     
  0.51183431952662628        0.0000000000000000        0.0000000000000000     
  0.51775147928993992        0.0000000000000000        0.0000000000000000     
  0.52366863905325356        0.0000000000000000        0.0000000000000000     
  0.52958579881656720        0.0000000000000000        0.0000000000000000     
  0.53550295857988084        0.0000000000000000        0.0000000000000000     
  0.54142011834319448        0.0000000000000000        0.0000000000000000     
  0.54733727810650812        0.0000000000000000        0.0000000000000000     
  0.55325443786982176        0.0000000000000000        0.0000000000000000     
  0.55917159763313540        0.0000000000000000        0.0000000000000000     
  0.56508875739644904        0.0000000000000000        0.0000000000000000     
  0.57100591715976268        0.0000000000000000        0.0000000000000000     
  0.57692307692307632        0.0000000000000000        0.0000000000000000     
  0.58284023668638996        0.0000000000000000        0.0000000000000000     
  0.58875739644970360        0.0000000000000000        0.0000000000000000     
  0.59467455621301724        0.0000000000000000        0.0000000000000000     
  0.60059171597633088        0.0000000000000000        0.0000000000000000     
  0.60650887573964452        0.0000000000000000        0.0000000000000000     
  0.61242603550295815        0.0000000000000000        0.0000000000000000     
  0.61834319526627179        0.0000000000000000        0.0000000000000000     
  0.62426035502958543        0.0000000000000000        0.0000000000000000     
  0.63017751479289907        0.0000000000000000        0.0000000000000000     
  0.63609467455621271        0.0000000000000000        0.0000000000000000     
  0.64201183431952635        0.0000000000000000        0.0000000000000000     
  0.64792899408283999        0.0000000000000000        0.0000000000000000     
  0.65384615384615363        0.0000000000000000        0.0000000000000000     
  0.65976331360946727        0.0000000000000000        0.0000000000000000     
  0.66568047337278091        0.0000000000000000        0.0000000000000000     
  0.67159763313609455        0.0000000000000000        0.0000000000000000     
  0.67751479289940819        0.0000000000000000        0.0000000000000000     
  0.68343195266272183        0.0000000000000000        0.0000000000000000     
  0.68934911242603547        0.0000000000000000        0.0000000000000000     
  0.69526627218934911        0.0000000000000000        0.0000000000000000     
  0.70118343195266275        0.0000000000000000        0.0000000000000000     
  0.70710059171597639        0.0000000000000000        0.0000000000000000     
  0.71301775147929003        0.0000000000000000        0.0000000000000000     
  0.71893491124260367        0.0000000000000000        0.0000000000000000     
  0.72485207100591731        0.0000000000000000        0.0000000000000000     
  0.73076923076923095        0.0000000000000000        0.0000000000000000     
  0.73668639053254459        0.0000000000000000        0.0000000000000000     
  0.74260355029585823        0.0000000000000000        0.0000000000000000     
  0.74852071005917187        0.0000000000000000        0.0000000000000000     
  0.75443786982248551        0.0000000000000000        0.0000000000000000     
  0.76035502958579915        0.0000000000000000        0.0000000000000000     
  0.76627218934911279        0.0000000000000000        0.0000000000000000     
  0.77218934911242643        0.0000000000000000        0.0000000000000000     
  0.77810650887574007        0.0000000000000000        0.0000000000000000     
  0.78402366863905371        0.0000000000000000        0.0000000000000000     
  0.78994082840236735        0.0000000000000000        0.0000000000000000     
  0.79585798816568099        0.0000000000000000        0.0000000000000000     
  0.80177514792899462        0.0000000000000000        0.0000000000000000     
  0.80769230769230826        0.0000000000000000        0.0000000000000000     
  0.81360946745562190        0.0000000000000000        0.0000000000000000     
  0.81952662721893554        0.0000000000000000        0.0000000000000000     
  0.82544378698224918        0.0000000000000000        0.0000000000000000     
  0.83136094674556282        0.0000000000000000        0.0000000000000000     
  0.83727810650887646        0.0000000000000000        0.0000000000000000     
  0.84319526627219010        0.0000000000000000        0.0000000000000000     
  0.84911242603550374        0.0000000000000000        0.0000000000000000     
  0.85502958579881738        0.0000000000000000        0.0000000000000000     
  0.86094674556213102        0.0000000000000000        0.0000000000000000     
  0.86686390532544466        0.0000000000000000        0.0000000000000000     
  0.87278106508875830        0.0000000000000000        0.0000000000000000     
  0.87869822485207194        0.0000000000000000        0.0000000000000000     
  0.88461538461538558        0.0000000000000000        0.0000000000000000     
  0.89053254437869922        0.0000000000000000        0.0000000000000000     
  0.89644970414201286        0.0000000000000000        0.0000000000000000     
  0.90236686390532650        0.0000000000000000        0.0000000000000000     
  0.90828402366864014        0.0000000000000000        0.0000000000000000     
  0.91420118343195378        0.0000000000000000        0.0000000000000000     
  0.92011834319526742        0.0000000000000000        0.0000000000000000     
  0.92603550295858106        0.0000000000000000        0.0000000000000000     
  0.93195266272189470        0.0000000000000000        0.0000000000000000     
  0.93786982248520834        0.0000000000000000        0.0000000000000000     
  0.94378698224852198        0.0000000000000000        0.0000000000000000     
  0.94970414201183562        0.0000000000000000        0.0000000000000000     
  0.95562130177514926        0.0000000000000000        0.0000000000000000     
  0.96153846153846290        0.0000000000000000        0.0000000000000000     
  0.96745562130177654        0.0000000000000000        0.0000000000000000     
  0.97337278106509018        0.0000000000000000        0.0000000000000000     
  0.97928994082840382        0.0000000000000000        0.0000000000000000     
  0.98520710059171746        0.0000000000000000        0.0000000000000000     
  0.99112426035503109        0.0000000000000000        0.0000000000000000     
  0.99704142011834473        0.0000000000000000        0.0000000000000000     
   1.0000000000000000        0.0000000000000000        0.0000000000000000     
   0.0000000000000000        2.9585798816568047E-003   0.0000000000000000     
   2.9585798816568047E-003   2.9585798816568047E-003  -2.0610531676876999E-008
   8.8757396449704144E-003   2.9585798816568047E-003   1.4391122181901649E-008
   1.4792899408284023E-002   2.9585798816568047E-003   9.3060918860114890E-008
   2.0710059171597631E-002   2.9585798816568047E-003   1.9570753149167204E-007
   2.6627218934911240E-002   2.9585798816568047E-003   3.0791429486044462E-007
   3.2544378698224852E-002   2.9585798816568047E-003   4.1918891949877962E-007
   3.8461538461538464E-002   2.9585798816568047E-003   5.2197975102437927E-007
   4.4378698224852076E-002   2.9585798816568047E-003   6.1099062788950746E-007
   5.0295857988165688E-002   2.9585798816568047E-003   6.8259259191300374E-007
   5.6213017751479299E-002   2.9585798816568047E-003   7.3438008352897872E-007
   6.2130177514792911E-002   2.9585798816568047E-003   7.6485324672419665E-007
   6.8047337278106523E-002   2.9585798816568047E-003   7.7318541271214717E-007
   7.3964497041420135E-002   2.9585798816568047E-003   7.5904873146834528E-007
   7.9881656804733747E-002   2.9585798816568047E-003   7.2248190221751643E-007
   8.5798816568047359E-002   2.9585798816568047E-003   6.6378670508599931E-007
   9.1715976331360971E-002   2.9585798816568047E-003   5.8344714721501320E-007
   9.7633136094674583E-002   2.9585798816568047E-003   4.8206610085615493E-007
  0.10355029585798819        2.9585798816568047E-003   3.6031368061911706E-007
  0.10946745562130181        2.9585798816568047E-003   2.1889075242073839E-007
  0.11538461538461542        2.9585798816568047E-003   5.8497486436561701E-008
  0.12130177514792903        2.9585798816568047E-003  -1.2018909056947134E-007
  0.12721893491124264        2.9585798816568047E-003  -3.1653257266097279E-007
  0.13313609467455625        2.9585798816568047E-003  -5.2995018742884224E-007
  0.13905325443786987        2.9585798816568047E-003  -7.5991919989720133E-007
  0.14497041420118348        2.9585798816568047E-003  -1.0059798697805969E-006
  0.15088757396449709        2.9585798816568047E-003  -1.2677360827511208E-006
  0.15680473372781070        2.9585798816568047E-003  -1.5448537652771972E-006
  0.16272189349112431        2.9585798816568047E-003  -1.8370574625233861E-006
  0.16863905325443793        2.9585798816568047E-003  -2.1441254874112965E-006
  0.17455621301775154        2.9585798816568047E-003  -2.4658839974804966E-006
  0.18047337278106515        2.9585798816568047E-003  -2.8022003045703940E-006
  0.18639053254437876        2.9585798816568047E-003  -3.1529756762731419E-006
  0.19230769230769237        2.9585798816568047E-003  -3.5181378462109426E-006
  0.19822485207100599        2.9585798816568047E-003  -3.8976334124286260E-006
  0.20414201183431960        2.9585798816568047E-003  -4.2914202694574408E-006
  0.21005917159763321        2.9585798816568047E-003  -4.6994601897494606E-006
  0.21597633136094682        2.9585798816568047E-003  -5.1217116439756062E-006
  0.22189349112426043        2.9585798816568047E-003  -5.5581229269764517E-006
  0.22781065088757405        2.9585798816568047E-003  -6.0086256367177399E-006
  0.23372781065088766        2.9585798816568047E-003  -6.4731285373020642E-006
  0.23964497041420127        2.9585798816568047E-003  -6.9515118236476173E-006
  0.24556213017751488        2.9585798816568047E-003  -7.4436217946824039E-006
  0.25147928994082847        2.9585798816568047E-003  -7.9492659336142813E-006
  0.25739644970414205        2.9585798816568047E-003  -8.4682083876926008E-006
  0.26331360946745563        2.9585798816568047E-003  -9.0001658357055806E-006
  0.26923076923076922        2.9585798816568047E-003  -9.5448037289775426E-006
  0.27514792899408280        2.9585798816568047E-003  -1.0101732890566361E-005
  0.28106508875739639        2.9585798816568047E-003  -1.0670506457503241E-005
  0.28698224852070997        2.9585798816568047E-003  -1.1250617151999869E-005
  0.29289940828402355        2.9585798816568047E-003  -1.1841494869367719E-005
  0.29881656804733714        2.9585798816568047E-003  -1.2442504572721147E-005
  0.30473372781065072        2.9585798816568047E-003  -1.3052944487220429E-005
  0.31065088757396431        2.9585798816568047E-003  -1.3672044589445448E-005
  0.31656804733727789        2.9585798816568047E-003  -1.4298965390356576E-005
  0.32248520710059148        2.9585798816568047E-003  -1.4932797013086734E-005
  0.32840236686390506        2.9585798816568047E-003  -1.5572558569378233E-005
  0.33431952662721864        2.9585798816568047E-003  -1.6217197840803531E-005
  0.34023668639053223        2.9585798816568047E-003  -1.6865591272888929E-005
  0.34615384615384581        2.9585798816568047E-003  -1.7516544291887541E-005
  0.35207100591715940        2.9585798816568047E-003  -1.8168791955163764E-005
  0.35798816568047298        2.9585798816568047E-003  -1.8820999946984220E-005
  0.36390532544378656        2.9585798816568047E-003  -1.9471765931915155E-005
  0.36982248520710015        2.9585798816568047E-003  -2.0119621278048472E-005
  0.37573964497041373        2.9585798816568047E-003  -2.0763033161909563E-005
  0.38165680473372732        2.9585798816568047E-003  -2.1400407066185096E-005
  0.38757396449704090        2.9585798816568047E-003  -2.2030089680343224E-005
  0.39349112426035449        2.9585798816568047E-003  -2.2650372212896865E-005
  0.39940828402366807        2.9585798816568047E-003  -2.3259494122428879E-005
  0.40532544378698165        2.9585798816568047E-003  -2.3855647272698386E-005
  0.41124260355029524        2.9585798816568047E-003  -2.4436980515121364E-005
  0.41715976331360882        2.9585798816568047E-003  -2.5001604699775143E-005
  0.42307692307692241        2.9585798816568047E-003  -2.5547598113777233E-005
  0.42899408284023599        2.9585798816568047E-003  -2.6073012343478344E-005
  0.43491124260354957        2.9585798816568047E-003  -2.6575878554315980E-005
  0.44082840236686316        2.9585798816568047E-003  -2.7054214179221534E-005
  0.44674556213017674        2.9585798816568047E-003  -2.7506030002848412E-005
  0.45266272189349033        2.9585798816568047E-003  -2.7929337624131787E-005
  0.45857988165680391        2.9585798816568047E-003  -2.8322157274089501E-005
  0.46449704142011750        2.9585798816568047E-003  -2.8682525958791403E-005
  0.47041420118343108        2.9585798816568047E-003  -2.9008505883568177E-005
  0.47633136094674466        2.9585798816568047E-003  -2.9298193116800823E-005
  0.48224852071005825        2.9585798816568047E-003  -2.9549726630297230E-005
  0.48816568047337183        2.9585798816568047E-003  -2.9761298256567706E-005
  0.49408284023668542        2.9585798816568047E-003  -2.9931163668308942E-005
  0.49999999999999900        2.9585798816568047E-003  -3.0057654126455811E-005
  0.50591715976331264        2.9585798816568047E-003  -3.0139201283742021E-005
  0.51183431952662628        2.9585798816568047E-003  -3.0174408590066467E-005
  0.51775147928993992        2.9585798816568047E-003  -3.0162188252977375E-005
  0.52366863905325356        2.9585798816568047E-003  -3.0101683939073059E-005
  0.52958579881656720        2.9585798816568047E-003  -2.9992100962181361E-005
  0.53550295857988084        2.9585798816568047E-003  -2.9832728861609510E-005
  0.54142011834319448        2.9585798816568047E-003  -2.9622985678854654E-005
  0.54733727810650812        2.9585798816568047E-003  -2.9362446759238881E-005
  0.55325443786982176        2.9585798816568047E-003  -2.9050865298507568E-005
  0.55917159763313540        2.9585798816568047E-003  -2.8688188147223896E-005
  0.56508875739644904        2.9585798816568047E-003  -2.8274568042781745E-005
  0.57100591715976268        2.9585798816568047E-003  -2.7810373203652806E-005
  0.57692307692307632        2.9585798816568047E-003  -2.7296194891332985E-005
  0.58284023668638996        2.9585798816568047E-003  -2.6732853232786298E-005
  0.58875739644970360        2.9585798816568047E-003  -2.6121401418935560E-005
  0.59467455621301724        2.9585798816568047E-003  -2.5463128302053996E-005
  0.60059171597633088        2.9585798816568047E-003  -2.4759559365598818E-005
  0.60650887573964452        2.9585798816568047E-003  -2.4012456016179993E-005
  0.61242603550295815        2.9585798816568047E-003  -2.3223813139101721E-005
  0.61834319526627179        2.9585798816568047E-003  -2.2395854860328198E-005
  0.62426035502958543        2.9585798816568047E-003  -2.1531028465528574E-005
  0.63017751479289907        2.9585798816568047E-003  -2.0631996439126800E-005
  0.63609467455621271        2.9585798816568047E-003  -1.9701626601989747E-005
  0.64201183431952635        2.9585798816568047E-003  -1.8742980344792224E-005
  0.64792899408283999        2.9585798816568047E-003  -1.7759298974738877E-005
  0.65384615384615363        2.9585798816568047E-003  -1.6753988215772749E-005
  0.65976331360946727        2.9585798816568047E-003  -1.5730600926333586E-005
  0.66568047337278091        2.9585798816568047E-003  -1.4692818123729525E-005
  0.67159763313609455        2.9585798816568047E-003  -1.3644428429952937E-005
  0.67751479289940819        2.9585798816568047E-003  -1.2589306079847959E-005
  0.68343195266272183        2.9585798816568047E-003  -1.1531387658669058E-005
  0.68934911242603547        2.9585798816568047E-003  -1.0474647761940256E-005
  0.69526627218934911        2.9585798816568047E-003  -9.4230737961705948E-006
  0.70118343195266275        2.9585798816568047E-003  -8.3806401649624330E-006
  0.70710059171597639        2.9585798816568047E-003  -7.3512821131100872E-006
  0.71301775147929003        2.9585798816568047E-003  -6.3388695353573553E-006
  0.71893491124260367        2.9585798816568047E-003  -5.3471811063089774E-006
  0.72485207100591731        2.9585798816568047E-003  -4.3798791771040880E-006
  0.73076923076923095        2.9585798816568047E-003  -3.4404860538009082E-006
  0.73668639053254459        2.9585798816568047E-003  -2.5323625327254106E-006
  0.74260355029585823        2.9585798816568047E-003  -1.6586899436692815E-006
  0.74852071005917187        2.9585798816568047E-003  -8.2245881098786122E-007
  0.75443786982248551        2.9585798816568047E-003  -2.6472095101207703E-008
  0.76035502958579915        2.9585798816568047E-003   7.2664325315649426E-007
  0.76627218934911279        2.9585798816568047E-003   1.4345702748874969E-006
  0.77218934911242643        2.9585798816568047E-003   2.0953812172253191E-006
  0.77810650887574007        2.9585798816568047E-003   2.7074645751285206E-006
  0.78402366863905371        2.9585798816568047E-003   3.2695051581104189E-006
  0.78994082840236735        2.9585798816568047E-003   3.7804652744772896E-006
  0.79585798816568099        2.9585798816568047E-003   4.2395860299936476E-006
  0.80177514792899462        2.9585798816568047E-003   4.6463900062093701E-006
  0.80769230769230826        2.9585798816568047E-003   5.0006802994506470E-006
  0.81360946745562190        2.9585798816568047E-003   5.3025364652012026E-006
  0.81952662721893554        2.9585798816568047E-003   5.5523079965769056E-006
  0.82544378698224918        2.9585798816568047E-003   5.7506056937103259E-006
  0.83136094674556282        2.9585798816568047E-003   5.8982913268611115E-006
  0.83727810650887646        2.9585798816568047E-003   5.9964660433604310E-006
  0.84319526627219010        2.9585798816568047E-003   6.0464577763053111E-006
  0.84911242603550374        2.9585798816568047E-003   6.0498070612431029E-006
  0.85502958579881738        2.9585798816568047E-003   6.0082494113285261E-006
  0.86094674556213102        2.9585798816568047E-003   5.9236972907926863E-006
  0.86686390532544466        2.9585798816568047E-003   5.7982432582169139E-006
  0.87278106508875830        2.9585798816568047E-003   5.6341411511493241E-006
  0.87869822485207194        2.9585798816568047E-003   5.4337925714809925E-006
  0.88461538461538558        2.9585798816568047E-003   5.1997680975026577E-006
  0.89053254437869922        2.9585798816568047E-003   4.9348209989277686E-006
  0.89644970414201286        2.9585798816568047E-003   4.6419043265331482E-006
  0.90236686390532650        2.9585798816568047E-003   4.3241949141832895E-006
  0.90828402366864014        2.9585798816568047E-003   3.9851251438416149E-006
  0.91420118343195378        2.9585798816568047E-003   3.6284235109309606E-006
  0.92011834319526742        2.9585798816568047E-003   3.2581652799070452E-006
  0.92603550295858106        2.9585798816568047E-003   2.8788346063215395E-006
  0.93195266272189470        2.9585798816568047E-003   2.4953994119949363E-006
  0.93786982248520834        2.9585798816568047E-003   2.1133998123949322E-006
  0.94378698224852198        2.9585798816568047E-003   1.7390493535903042E-006
  0.94970414201183562        2.9585798816568047E-003   1.3793435968506223E-006
  0.95562130177514926        2.9585798816568047E-003   1.0421581094695450E-006
  0.96153846153846290        2.9585798816568047E-003   7.3629365705279452E-007
  0.96745562130177654        2.9585798816568047E-003   4.7137427688661127E-007
  0.97337278106509018        2.9585798816568047E-003   2.5729620588564855E-007
  0.97928994082840382        2.9585798816568047E-003   1.0235992221688929E-007
  0.98520710059171746        2.9585798816568047E-003   9.0165533567687525E-009
  0.99112426035503109        2.9585798816568047E-003  -2.8471456554283813E-008
  0.99704142011834473        2.9585798816568047E-003   0.0000000000000000     
   1.0000000000000000        2.9585798816568047E-003   0.0000000000000000     
   0.0000000000000000        8.8757396449704144E-003   0.0000000000000000     
   2.9585798816568047E-003   8.8757396449704144E-003   9.0520346529222612E-009
   8.8757396449704144E-003   8.8757396449704144E-003   1.1355841822152038E-007
   1.4792899408284023E-002   8.8757396449704144E-003   2.9560849978564179E-007
   2.0710059171597631E-002   8.8757396449704144E-003   5.2428402019447247E-007
   2.6627218934911240E-002   8.8757396449704144E-003   7.7182105212780890E-007
   3.2544378698224852E-002   8.8757396449704144E-003   1.0155208456237601E-006
   3.8461538461538464E-002   8.8757396449704144E-003   1.2376224101260825E-006
   4.4378698224852076E-002   8.8757396449704144E-003   1.4246774948055825E-006
   5.0295857988165688E-002   8.8757396449704144E-003   1.5668160728926739E-006
   5.6213017751479299E-002   8.8757396449704144E-003   1.6570471765728389E-006
   6.2130177514792911E-002   8.8757396449704144E-003   1.6906562499723265E-006
   6.8047337278106523E-002   8.8757396449704144E-003   1.6647072865138456E-006
   7.3964497041420135E-002   8.8757396449704144E-003   1.5776380665190094E-006
   7.9881656804733747E-002   8.8757396449704144E-003   1.4289333918725222E-006
   8.5798816568047359E-002   8.8757396449704144E-003   1.2188588478590284E-006
   9.1715976331360971E-002   8.8757396449704144E-003   9.4824756427015644E-007
   9.7633136094674583E-002   8.8757396449704144E-003   6.1832721826297781E-007
  0.10355029585798819        8.8757396449704144E-003   2.3057518171562863E-007
  0.10946745562130181        8.8757396449704144E-003  -2.1338355148727700E-007
  0.11538461538461542        8.8757396449704144E-003  -7.1186528313675407E-007
  0.12130177514792903        8.8757396449704144E-003  -1.2632044231249131E-006
  0.12721893491124264        8.8757396449704144E-003  -1.8658056957465659E-006
  0.13313609467455625        8.8757396449704144E-003  -2.5181752072614798E-006
  0.13905325443786987        8.8757396449704144E-003  -3.2189444943822410E-006
  0.14497041420118348        8.8757396449704144E-003  -3.9668849431521993E-006
  0.15088757396449709        8.8757396449704144E-003  -4.7609137137429560E-006
  0.15680473372781070        8.8757396449704144E-003  -5.6000929113270337E-006
  0.16272189349112431        8.8757396449704144E-003  -6.4836233450367819E-006
  0.16863905325443793        8.8757396449704144E-003  -7.4108340000046764E-006
  0.17455621301775154        8.8757396449704144E-003  -8.3811682075540916E-006
  0.18047337278106515        8.8757396449704144E-003  -9.3941673676466280E-006
  0.18639053254437876        8.8757396449704144E-003  -1.0449452955686891E-005
  0.19230769230769237        8.8757396449704144E-003  -1.1546707434345282E-005
  0.19822485207100599        8.8757396449704144E-003  -1.2685654590120303E-005
  0.20414201183431960        8.8757396449704144E-003  -1.3866039723479149E-005