 title=U
 variables=x,y,U
 zone i=         121 ,j=         121
 
   0.0000000000000000        0.0000000000000000        0.0000000000000000     
   4.2016806722689074E-003   0.0000000000000000        0.0000000000000000     
   1.2605042016806723E-002   0.0000000000000000        0.0000000000000000     
   2.1008403361344540E-002   0.0000000000000000        0.0000000000000000     
   2.9411764705882353E-002   0.0000000000000000        0.0000000000000000     
   3.7815126050420166E-002   0.0000000000000000        0.0000000000000000     
   4.6218487394957979E-002   0.0000000000000000        0.0000000000000000     
   5.4621848739495792E-002   0.0000000000000000        0.0000000000000000     
   6.3025210084033612E-002   0.0000000000000000        0.0000000000000000     
   7.1428571428571425E-002   0.0000000000000000        0.0000000000000000     
   7.9831932773109238E-002   0.0000000000000000        0.0000000000000000     
   8.8235294117647051E-002   0.0000000000000000        0.0000000000000000     
   9.6638655462184864E-002   0.0000000000000000        0.0000000000000000     
  0.10504201680672268        0.0000000000000000        0.0000000000000000     
  0.11344537815126049        0.0000000000000000        0.0000000000000000     
  0.12184873949579830        0.0000000000000000        0.0000000000000000     
  0.13025210084033612        0.0000000000000000        0.0000000000000000     
  0.13865546218487393        0.0000000000000000        0.0000000000000000     
  0.14705882352941174        0.0000000000000000        0.0000000000000000     
  0.15546218487394955        0.0000000000000000        0.0000000000000000     
  0.16386554621848737        0.0000000000000000        0.0000000000000000     
  0.17226890756302518        0.0000000000000000        0.0000000000000000     
  0.18067226890756299        0.0000000000000000        0.0000000000000000     
  0.18907563025210081        0.0000000000000000        0.0000000000000000     
  0.19747899159663862        0.0000000000000000        0.0000000000000000     
  0.20588235294117643        0.0000000000000000        0.0000000000000000     
  0.21428571428571425        0.0000000000000000        0.0000000000000000     
  0.22268907563025206        0.0000000000000000        0.0000000000000000     
  0.23109243697478987        0.0000000000000000        0.0000000000000000     
  0.23949579831932769        0.0000000000000000        0.0000000000000000     
  0.24789915966386550        0.0000000000000000        0.0000000000000000     
  0.25630252100840334        0.0000000000000000        0.0000000000000000     
  0.26470588235294118        0.0000000000000000        0.0000000000000000     
  0.27310924369747902        0.0000000000000000        0.0000000000000000     
  0.28151260504201686        0.0000000000000000        0.0000000000000000     
  0.28991596638655470        0.0000000000000000        0.0000000000000000     
  0.29831932773109254        0.0000000000000000        0.0000000000000000     
  0.30672268907563038        0.0000000000000000        0.0000000000000000     
  0.31512605042016822        0.0000000000000000        0.0000000000000000     
  0.32352941176470607        0.0000000000000000        0.0000000000000000     
  0.33193277310924391        0.0000000000000000        0.0000000000000000     
  0.34033613445378175        0.0000000000000000        0.0000000000000000     
  0.34873949579831959        0.0000000000000000        0.0000000000000000     
  0.35714285714285743        0.0000000000000000        0.0000000000000000     
  0.36554621848739527        0.0000000000000000        0.0000000000000000     
  0.37394957983193311        0.0000000000000000        0.0000000000000000     
  0.38235294117647095        0.0000000000000000        0.0000000000000000     
  0.39075630252100879        0.0000000000000000        0.0000000000000000     
  0.39915966386554663        0.0000000000000000        0.0000000000000000     
  0.40756302521008447        0.0000000000000000        0.0000000000000000     
  0.41596638655462231        0.0000000000000000        0.0000000000000000     
  0.42436974789916015        0.0000000000000000        0.0000000000000000     
  0.43277310924369800        0.0000000000000000        0.0000000000000000     
  0.44117647058823584        0.0000000000000000        0.0000000000000000     
  0.44957983193277368        0.0000000000000000        0.0000000000000000     
  0.45798319327731152        0.0000000000000000        0.0000000000000000     
  0.46638655462184936        0.0000000000000000        0.0000000000000000     
  0.47478991596638720        0.0000000000000000        0.0000000000000000     
  0.48319327731092504        0.0000000000000000        0.0000000000000000     
  0.49159663865546288        0.0000000000000000        0.0000000000000000     
  0.50000000000000067        0.0000000000000000        0.0000000000000000     
  0.50840336134453845        0.0000000000000000        0.0000000000000000     
  0.51680672268907624        0.0000000000000000        0.0000000000000000     
  0.52521008403361402        0.0000000000000000        0.0000000000000000     
  0.53361344537815181        0.0000000000000000        0.0000000000000000     
  0.54201680672268959        0.0000000000000000        0.0000000000000000     
  0.55042016806722738        0.0000000000000000        0.0000000000000000     
  0.55882352941176516        0.0000000000000000        0.0000000000000000     
  0.56722689075630295        0.0000000000000000        0.0000000000000000     
  0.57563025210084073        0.0000000000000000        0.0000000000000000     
  0.58403361344537852        0.0000000000000000        0.0000000000000000     
  0.59243697478991630        0.0000000000000000        0.0000000000000000     
  0.60084033613445409        0.0000000000000000        0.0000000000000000     
  0.60924369747899187        0.0000000000000000        0.0000000000000000     
  0.61764705882352966        0.0000000000000000        0.0000000000000000     
  0.62605042016806745        0.0000000000000000        0.0000000000000000     
  0.63445378151260523        0.0000000000000000        0.0000000000000000     
  0.64285714285714302        0.0000000000000000        0.0000000000000000     
  0.65126050420168080        0.0000000000000000        0.0000000000000000     
  0.65966386554621859        0.0000000000000000        0.0000000000000000     
  0.66806722689075637        0.0000000000000000        0.0000000000000000     
  0.67647058823529416        0.0000000000000000        0.0000000000000000     
  0.68487394957983194        0.0000000000000000        0.0000000000000000     
  0.69327731092436973        0.0000000000000000        0.0000000000000000     
  0.70168067226890751        0.0000000000000000        0.0000000000000000     
  0.71008403361344530        0.0000000000000000        0.0000000000000000     
  0.71848739495798308        0.0000000000000000        0.0000000000000000     
  0.72689075630252087        0.0000000000000000        0.0000000000000000     
  0.73529411764705865        0.0000000000000000        0.0000000000000000     
  0.74369747899159644        0.0000000000000000        0.0000000000000000     
  0.75210084033613422        0.0000000000000000        0.0000000000000000     
  0.76050420168067201        0.0000000000000000        0.0000000000000000     
  0.76890756302520979        0.0000000000000000        0.0000000000000000     
  0.77731092436974758        0.0000000000000000        0.0000000000000000     
  0.78571428571428537        0.0000000000000000        0.0000000000000000     
  0.79411764705882315        0.0000000000000000        0.0000000000000000     
  0.80252100840336094        0.0000000000000000        0.0000000000000000     
  0.81092436974789872        0.0000000000000000        0.0000000000000000     
  0.81932773109243651        0.0000000000000000        0.0000000000000000     
  0.82773109243697429        0.0000000000000000        0.0000000000000000     
  0.83613445378151208        0.0000000000000000        0.0000000000000000     
  0.84453781512604986        0.0000000000000000        0.0000000000000000     
  0.85294117647058765        0.0000000000000000        0.0000000000000000     
  0.86134453781512543        0.0000000000000000        0.0000000000000000     
  0.86974789915966322        0.0000000000000000        0.0000000000000000     
  0.87815126050420100        0.0000000000000000        0.0000000000000000     
  0.88655462184873879        0.0000000000000000        0.0000000000000000     
  0.89495798319327657        0.0000000000000000        0.0000000000000000     
  0.90336134453781436        0.0000000000000000        0.0000000000000000     
  0.91176470588235214        0.0000000000000000        0.0000000000000000     
  0.92016806722688993        0.0000000000000000        0.0000000000000000     
  0.92857142857142771        0.0000000000000000        0.0000000000000000     
  0.93697478991596550        0.0000000000000000        0.0000000000000000     
  0.94537815126050329        0.0000000000000000        0.0000000000000000     
  0.95378151260504107        0.0000000000000000        0.0000000000000000     
  0.96218487394957886        0.0000000000000000        0.0000000000000000     
  0.97058823529411664        0.0000000000000000        0.0000000000000000     
  0.97899159663865443        0.0000000000000000        0.0000000000000000     
  0.98739495798319221        0.0000000000000000        0.0000000000000000     
  0.99579831932773000        0.0000000000000000        0.0000000000000000     
   1.0000000000000000        0.0000000000000000        0.0000000000000000     
   0.0000000000000000        4.2016806722689074E-003   0.0000000000000000     
   4.2016806722689074E-003   4.2016806722689074E-003   2.3008087862775845E-006
   1.2605042016806723E-002   4.2016806722689074E-003   1.8810249249384235E-005
   2.1008403361344540E-002   4.2016806722689074E-003   5.2389274821347682E-005
   2.9411764705882353E-002   4.2016806722689074E-003   9.3330341844835170E-005
   3.7815126050420166E-002   4.2016806722689074E-003   1.3371259213915268E-004
   4.6218487394957979E-002   4.2016806722689074E-003   1.6902611013458867E-004
   5.4621848739495792E-002   4.2016806722689074E-003   1.9640887563223300E-004
   6.3025210084033612E-002   4.2016806722689074E-003   2.1412009519818217E-004
   7.1428571428571425E-002   4.2016806722689074E-003   2.2124874008295909E-004
   7.9831932773109238E-002   4.2016806722689074E-003   2.1744227405755227E-004
   8.8235294117647051E-002   4.2016806722689074E-003   2.0271061687100457E-004
   9.6638655462184864E-002   4.2016806722689074E-003   1.7729224308228871E-004
  0.10504201680672268        4.2016806722689074E-003   1.4155871693385816E-004
  0.11344537815126049        4.2016806722689074E-003   9.5944879864563628E-005
  0.12184873949579830        4.2016806722689074E-003   4.0905306382683271E-005
  0.13025210084033612        4.2016806722689074E-003  -2.3124237250346763E-005
  0.13865546218487393        4.2016806722689074E-003  -9.5739780208850582E-005
  0.14705882352941174        4.2016806722689074E-003  -1.7659021853297767E-004
  0.15546218487394955        4.2016806722689074E-003  -2.6537918642941042E-004
  0.16386554621848737        4.2016806722689074E-003  -3.6186541307859895E-004
  0.17226890756302518        4.2016806722689074E-003  -4.6585940016860593E-004
  0.18067226890756299        4.2016806722689074E-003  -5.7721724641985705E-004
  0.18907563025210081        4.2016806722689074E-003  -6.9583276938700773E-004
  0.19747899159663862        4.2016806722689074E-003  -8.2162855038835222E-004
  0.20588235294117643        4.2016806722689074E-003  -9.5454643254124177E-004
  0.21428571428571425        4.2016806722689074E-003  -1.0945378991450514E-003
  0.22268907563025206        4.2016806722689074E-003  -1.2415546511766191E-003
  0.23109243697478987        4.2016806722689074E-003  -1.3955396107551187E-003
  0.23949579831932769        4.2016806722689074E-003  -1.5564185027200283E-003
  0.24789915966386550        4.2016806722689074E-003  -1.7240921067912915E-003
  0.25630252100840334        4.2016806722689074E-003  -1.8984292267383667E-003
  0.26470588235294118        4.2016806722689074E-003  -2.0792603891488354E-003
  0.27310924369747902        4.2016806722689074E-003  -2.2663722612222795E-003
  0.28151260504201686        4.2016806722689074E-003  -2.4595027629070064E-003
  0.28991596638655470        4.2016806722689074E-003  -2.6583368419565634E-003
  0.29831932773109254        4.2016806722689074E-003  -2.8625028795410349E-003
  0.30672268907563038        4.2016806722689074E-003  -3.0715696973258643E-003
  0.31512605042016822        4.2016806722689074E-003  -3.2850441430540157E-003
  0.32352941176470607        4.2016806722689074E-003  -3.5023692393899865E-003
  0.33193277310924391        4.2016806722689074E-003  -3.7229228890809699E-003
  0.34033613445378175        4.2016806722689074E-003  -3.9460171375060912E-003
  0.34873949579831959        4.2016806722689074E-003  -4.1708980008288085E-003
  0.35714285714285743        4.2016806722689074E-003  -4.3967458737633035E-003
  0.36554621848739527        4.2016806722689074E-003  -4.6226765351809057E-003
  0.37394957983193311        4.2016806722689074E-003  -4.8477427722701102E-003
  0.38235294117647095        4.2016806722689074E-003  -5.0709366447171450E-003
  0.39075630252100879        4.2016806722689074E-003  -5.2911924094467188E-003
  0.39915966386554663        4.2016806722689074E-003  -5.5073901239341468E-003
  0.40756302521008447        4.2016806722689074E-003  -5.7183599420445284E-003
  0.41596638655462231        4.2016806722689074E-003  -5.9228871107198438E-003
  0.42436974789916015        4.2016806722689074E-003  -6.1197176683075285E-003
  0.43277310924369800        4.2016806722689074E-003  -6.3075648354253798E-003
  0.44117647058823584        4.2016806722689074E-003  -6.4851160773387612E-003
  0.44957983193277368        4.2016806722689074E-003  -6.6510408009184813E-003
  0.45798319327731152        4.2016806722689074E-003  -6.8039986116014920E-003
  0.46638655462184936        4.2016806722689074E-003  -6.9426480005278218E-003
  0.47478991596638720        4.2016806722689074E-003  -7.0656554878607818E-003
  0.48319327731092504        4.2016806722689074E-003  -7.1717057959789438E-003
  0.49159663865546288        4.2016806722689074E-003  -7.2595121757625418E-003
  0.50000000000000067        4.2016806722689074E-003  -7.3278188306202642E-003
  0.50840336134453845        4.2016806722689074E-003  -7.3754036509382304E-003
  0.51680672268907624        4.2016806722689074E-003  -7.4012321104742112E-003
  0.52521008403361402        4.2016806722689074E-003  -7.4045048832437595E-003
  0.53361344537815181        4.2016806722689074E-003  -7.3844527076323335E-003
  0.54201680672268959        4.2016806722689074E-003  -7.3405707802082481E-003
  0.55042016806722738        4.2016806722689074E-003  -7.2724021381325738E-003
  0.55882352941176516        4.2016806722689074E-003  -7.1796070962593496E-003
  0.56722689075630295        4.2016806722689074E-003  -7.0620129204553095E-003
  0.57563025210084073        4.2016806722689074E-003  -6.9196356144913306E-003
  0.58403361344537852        4.2016806722689074E-003  -6.7526954575763852E-003
  0.59243697478991630        4.2016806722689074E-003  -6.5616290703474833E-003
  0.60084033613445409        4.2016806722689074E-003  -6.3470978605942108E-003
  0.60924369747899187        4.2016806722689074E-003  -6.1099931909853657E-003
  0.61764705882352966        4.2016806722689074E-003  -5.8514384006692743E-003
  0.62605042016806745        4.2016806722689074E-003  -5.5727875789008561E-003
  0.63445378151260523        4.2016806722689074E-003  -5.2756209183958498E-003
  0.64285714285714302        4.2016806722689074E-003  -4.9617364781783524E-003
  0.65126050420168080        4.2016806722689074E-003  -4.6331382203394821E-003
  0.65966386554621859        4.2016806722689074E-003  -4.2920202429595810E-003
  0.66806722689075637        4.2016806722689074E-003  -3.9407472069522735E-003
  0.67647058823529416        4.2016806722689074E-003  -3.5818310436654391E-003
  0.68487394957983194        4.2016806722689074E-003  -3.2179041297915067E-003
  0.69327731092436973        4.2016806722689074E-003  -2.8516892239172998E-003
  0.70168067226890751        4.2016806722689074E-003  -2.4859665722654759E-003
  0.71008403361344530        4.2016806722689074E-003  -2.1235387087313751E-003
  0.71848739495798308        4.2016806722689074E-003  -1.7671936057919782E-003
  0.72689075630252087        4.2016806722689074E-003  -1.4196669898198183E-003
  0.73529411764705865        4.2016806722689074E-003  -1.0836047254647197E-003
  0.74369747899159644        4.2016806722689074E-003  -7.6152633093203232E-004
  0.75210084033613422        4.2016806722689074E-003  -4.5579353059367801E-004
  0.76050420168067201        4.2016806722689074E-003  -1.6859225579169397E-004
  0.76890756302520979        4.2016806722689074E-003   9.8106281227863980E-005
  0.77731092436974758        4.2016806722689074E-003   3.4251933695887422E-004
  0.78571428571428537        4.2016806722689074E-003   5.6318781751592793E-004
  0.79411764705882315        4.2016806722689074E-003   7.5903616813798502E-004
  0.80252100840336094        4.2016806722689074E-003   9.2931171979683199E-004
  0.81092436974789872        4.2016806722689074E-003   1.0735391754962604E-003
  0.81932773109243651        4.2016806722689074E-003   1.1915298673085470E-003
  0.82773109243697429        4.2016806722689074E-003   1.2833807796747345E-003
  0.83613445378151208        4.2016806722689074E-003   1.3494652180684971E-003
  0.84453781512604986        4.2016806722689074E-003   1.3904199082273936E-003
  0.85294117647058765        4.2016806722689074E-003   1.4071279668844878E-003
  0.86134453781512543        4.2016806722689074E-003   1.4006971319985633E-003
  0.86974789915966322        4.2016806722689074E-003   1.3724610418913727E-003
  0.87815126050420100        4.2016806722689074E-003   1.3238883731615809E-003
  0.88655462184873879        4.2016806722689074E-003   1.2566443893103302E-003
  0.89495798319327657        4.2016806722689074E-003   1.1725718913574322E-003
  0.90336134453781436        4.2016806722689074E-003   1.0737140738138115E-003
  0.91176470588235214        4.2016806722689074E-003   9.6235420590242576E-004
  0.92016806722688993        4.2016806722689074E-003   8.4107071744431367E-004
  0.92857142857142771        4.2016806722689074E-003   7.1281348659924459E-004
  0.93697478991596550        4.2016806722689074E-003   5.8100613175682671E-004
  0.94537815126050329        4.2016806722689074E-003   4.4967646133854873E-004
  0.95378151260504107        4.2016806722689074E-003   3.2361470795318605E-004
  0.96218487394957886        4.2016806722689074E-003   2.0854592399950723E-004
  0.97058823529411664        4.2016806722689074E-003   1.1118833670249602E-004
  0.97899159663865443        4.2016806722689074E-003   3.8721880973913351E-005
  0.98739495798319221        4.2016806722689074E-003  -2.9482586159351719E-006
  0.99579831932773000        4.2016806722689074E-003  -1.1402844609878542E-005
   1.0000000000000000        4.2016806722689074E-003   0.0000000000000000     
   0.0000000000000000        1.2605042016806723E-002   0.0000000000000000     
   4.2016806722689074E-003   1.2605042016806723E-002   1.1661185788042003E-005
   1.2605042016806723E-002   1.2605042016806723E-002   5.5976024359956110E-005
   2.1008403361344540E-002   1.2605042016806723E-002   1.2932713874534132E-004
   2.9411764705882353E-002   1.2605042016806723E-002   2.1322869270020708E-004
   3.7815126050420166E-002   1.2605042016806723E-002   2.9305340181083047E-004
   4.6218487394957979E-002   1.2605042016806723E-002   3.5946252890033109E-004
   5.4621848739495792E-002   1.2605042016806723E-002   4.0576124107561182E-004
   6.3025210084033612E-002   1.2605042016806723E-002   4.2741910702155168E-004
   7.1428571428571425E-002   1.2605042016806723E-002   4.2170927449638643E-004
   7.9831932773109238E-002   1.2605042016806723E-002   3.8724262172791041E-004
   8.8235294117647051E-002   1.2605042016806723E-002   3.2357420007966104E-004
   9.6638655462184864E-002   1.2605042016806723E-002   2.3090410565950988E-004
  0.10504201680672268        1.2605042016806723E-002   1.0984703618293160E-004
  0.11344537815126049        1.2605042016806723E-002  -3.8747892269274695E-005
  0.12184873949579830        1.2605042016806723E-002  -2.1389570220290403E-004
  0.13025210084033612        1.2605042016806723E-002  -4.1460359791307993E-004
  0.13865546218487393        1.2605042016806723E-002  -6.3992517234849199E-004
  0.14705882352941174        1.2605042016806723E-002  -8.8899441090344706E-004
  0.15546218487394955        1.2605042016806723E-002  -1.1610490215281084E-003
  0.16386554621848737        1.2605042016806723E-002  -1.4554374090861959E-003
  0.17226890756302518        1.2605042016806723E-002  -1.7716149746098662E-003
  0.18067226890756299        1.2605042016806723E-002  -2.1091325902432446E-003
  0.18907563025210081        1.2605042016806723E-002  -2.4676195907949090E-003
  0.19747899159663862        1.2605042016806723E-002  -2.8467631637429480E-003
  0.20588235294117643        1.2605042016806723E-002  -3.2462856626912823E-003
  0.21428571428571425        1.2605042016806723E-002  -3.6659210538743997E-003
  0.22268907563025206        1.2605042016806723E-002  -4.1053914261138455E-003
  0.23109243697478987        1.2605042016806723E-002  -4.5643842565036936E-003
  0.23949579831932769        1.2605042016806723E-002  -5.0425309255757713E-003
  0.24789915966386550        1.2605042016806723E-002  -5.5393868139256052E-003
  0.25630252100840334        1.2605042016806723E-002  -6.0544131843727981E-003
  0.26470588235294118        1.2605042016806723E-002  -6.5869609564722358E-003
  0.27310924369747902        1.2605042016806723E-002  -7.1362564099614794E-003
  0.28151260504201686        1.2605042016806723E-002  -7.7013888066315445E-003
  0.28991596638655470        1.2605042016806723E-002  -8.2812998921527412E-003
  0.29831932773109254        1.2605042016806723E-002  -8.8747752266229996E-003
  0.30672268907563038        1.2605042016806723E-002  -9.4804372912316755E-003
  0.31512605042016822        1.2605042016806723E-002  -1.0096740325010354E-002
  0.32352941176470607        1.2605042016806723E-002  -1.0721966857053815E-002
  0.33193277310924391        1.2605042016806723E-002  -1.1354225913284711E-002
  0.34033613445378175        1.2605042016806723E-002  -1.1991452890665421E-002
  0.34873949579831959        1.2605042016806723E-002  -1.2631411104156597E-002
  0.35714285714285743        1.2605042016806723E-002  -1.3271695021573219E-002
  0.36554621848739527        1.2605042016806723E-002  -1.3909735208099601E-002
  0.37394957983193311        1.2605042016806723E-002  -1.4542805005336357E-002
  0.38235294117647095        1.2605042016806723E-002  -1.5168028969335935E-002
  0.39075630252100879        1.2605042016806723E-002  -1.5782393088450797E-002
  0.39915966386554663        1.2605042016806723E-002  -1.6382756795380694E-002
  0.40756302521008447        1.2605042016806723E-002  -1.6965866779200339E-002
  0.41596638655462231        1.2605042016806723E-002  -1.7528372593084405E-002
  0.42436974789916015        1.2605042016806723E-002  -1.8066844042525971E-002
  0.43277310924369800        1.2605042016806723E-002  -1.8577790328424285E-002
  0.44117647058823584        1.2605042016806723E-002  -1.9057680914933057E-002
  0.44957983193277368        1.2605042016806723E-002  -1.9502968098571827E-002
  0.45798319327731152        1.2605042016806723E-002  -1.9910111244007104E-002
  0.46638655462184936        1.2605042016806723E-002  -2.0275602626273200E-002
  0.47478991596638720        1.2605042016806723E-002  -2.0595995306916116E-002
  0.48319327731092504        1.2605042016806723E-002  -2.0867935104711105E-002
  0.49159663865546288        1.2605042016806723E-002  -2.1088196355883670E-002
  0.50000000000000067        1.2605042016806723E-002  -2.1253705644583357E-002
  0.50840336134453845        1.2605042016806723E-002  -2.1361567874536941E-002
  0.51680672268907624        1.2605042016806723E-002  -2.1409347727572806E-002
  0.52521008403361402        1.2605042016806723E-002  -2.1395304795916694E-002
  0.53361344537815181        1.2605042016806723E-002  -2.1317319890262341E-002
  0.54201680672268959        1.2605042016806723E-002  -2.1174057160056135E-002
  0.55042016806722738        1.2605042016806723E-002  -2.0964450900029966E-002
  0.55882352941176516        1.2605042016806723E-002  -2.0687818210067186E-002
  0.56722689075630295        1.2605042016806723E-002  -2.0343940931578604E-002
  0.57563025210084073        1.2605042016806723E-002  -1.9933102728258680E-002
  0.58403361344537852        1.2605042016806723E-002  -1.9456119360323220E-002
  0.59243697478991630        1.2605042016806723E-002  -1.8914363407567230E-002
  0.60084033613445409        1.2605042016806723E-002  -1.8309781476901776E-002
  0.60924369747899187        1.2605042016806723E-002  -1.7644903934145913E-002
  0.61764705882352966        1.2605042016806723E-002  -1.6922847155643760E-002
  0.62605042016806745        1.2605042016806723E-002  -1.6147308004151751E-002
  0.63445378151260523        1.2605042016806723E-002  -1.5322550161928641E-002
  0.64285714285714302        1.2605042016806723E-002  -1.4453381979134533E-002
  0.65126050420168080        1.2605042016806723E-002  -1.3545125570967431E-002
  0.65966386554621859        1.2605042016806723E-002  -1.2603577016042830E-002
  0.66806722689075637        1.2605042016806723E-002  -1.1634957664550923E-002
  0.67647058823529416        1.2605042016806723E-002  -1.0645856751305272E-002
  0.68487394957983194        1.2605042016806723E-002  -9.6431657210274309E-003
  0.69327731092436973        1.2605042016806723E-002  -8.6340049067971728E-003
  0.70168067226890751        1.2605042016806723E-002  -7.6256434529056900E-003
  0.71008403361344530        1.2605042016806723E-002  -6.6254136365702029E-003
  0.71848739495798308        1.2605042016806723E-002  -5.6406210275300210E-003
  0.72689075630252087        1.2605042016806723E-002  -4.6784522466178742E-003
  0.73529411764705865        1.2605042016806723E-002  -3.7458823061423982E-003
  0.74369747899159644        1.2605042016806723E-002  -2.8495833870702970E-003
  0.75210084033613422        1.2605042016806723E-002  -1.9958387970163008E-003
  0.76050420168067201        1.2605042016806723E-002  -1.1904752678422816E-003
  0.76890756302520979        1.2605042016806723E-002  -4.3880414102935892E-004
  0.77731092436974758        1.2605042016806723E-002   2.5462344525555112E-004
  0.78571428571428537        1.2605042016806723E-002   8.8537679615149369E-004
  0.79411764705882315        1.2605042016806723E-002   1.4502680057991225E-003
  0.80252100840336094        1.2605042016806723E-002   1.9470656765597410E-003
  0.81092436974789872        1.2605042016806723E-002   2.3742430444440880E-003
  0.81932773109243651        1.2605042016806723E-002   2.7310386675723237E-003
  0.82773109243697429        1.2605042016806723E-002   3.0174573758052813E-003
  0.83613445378151208        1.2605042016806723E-002   3.2342461318220672E-003
  0.84453781512604986        1.2605042016806723E-002   3.3828666196671574E-003
  0.85294117647058765        1.2605042016806723E-002   3.4654637955926011E-003
  0.86134453781512543        1.2605042016806723E-002   3.4848256323752481E-003
  0.86974789915966322        1.2605042016806723E-002   3.4443874918566632E-003
  0.87815126050420100        1.2605042016806723E-002   3.3480715625718240E-003
  0.88655462184873879        1.2605042016806723E-002   3.2003543698668870E-003
  0.89495798319327657        1.2605042016806723E-002   3.0062702252033257E-003
  0.90336134453781436        1.2605042016806723E-002   2.7714498206380554E-003
  0.91176470588235214        1.2605042016806723E-002   2.5022009379847710E-003
  0.92016806722688993        1.2605042016806723E-002   2.2056164278860088E-003
  0.92857142857142771        1.2605042016806723E-002   1.8897117128932107E-003
  0.93697478991596550        1.2605042016806723E-002   1.5635874546295521E-003
  0.94537815126050329        1.2605042016806723E-002   1.2375986290947270E-003
  0.95378151260504107        1.2605042016806723E-002   9.2349546181244894E-004
  0.96218487394957886        1.2605042016806723E-002   6.3445413635021227E-004
  0.97058823529411664        1.2605042016806723E-002   3.8466924217048009E-004
  0.97899159663865443        1.2605042016806723E-002   1.8790466535401895E-004
  0.98739495798319221        1.2605042016806723E-002   5.5927105776089027E-005
  0.99579831932773000        1.2605042016806723E-002  -1.8065744651821445E-006
   1.0000000000000000        1.2605042016806723E-002   0.0000000000000000     
   0.0000000000000000        2.1008403361344540E-002   0.0000000000000000     
   4.2016806722689074E-003   2.1008403361344540E-002   1.7617153288560004E-005
   1.2605042016806723E-002   2.1008403361344540E-002   7.7752767576703692E-005
   2.1008403361344540E-002   2.1008403361344540E-002   1.7074891775727222E-004
   2.9411764705882353E-002   2.1008403361344540E-002   2.7131412684469868E-004
   3.7815126050420166E-002   2.1008403361344540E-002   3.6120536906419286E-004
   4.6218487394957979E-002   2.1008403361344540E-002   4.2866981106007615E-004
   5.4621848739495792E-002   2.1008403361344540E-002   4.6483332354245579E-004
   6.3025210084033612E-002   2.1008403361344540E-002   4.6336790271977627E-004
   7.1428571428571425E-002   2.1008403361344540E-002   4.2022002672022283E-004
   7.9831932773109238E-002   2.1008403361344540E-002   3.3312009909914860E-004
   8.8235294117647051E-002   2.1008403361344540E-002   2.0110595805026264E-004
   9.6638655462184864E-002   2.1008403361344540E-002   2.4160808041711991E-005
  0.10504201680672268        2.1008403361344540E-002  -1.9709309087280547E-004
  0.11344537815126049        2.1008403361344540E-002  -4.6159952117648005E-004