 title=U
 variables=x,y,U
 zone i=         171 ,j=         171
 
   0.0000000000000000        0.0000000000000000        0.0000000000000000     
   2.9585798816568047E-003   0.0000000000000000        0.0000000000000000     
   8.8757396449704144E-003   0.0000000000000000        0.0000000000000000     
   1.4792899408284023E-002   0.0000000000000000        0.0000000000000000     
   2.0710059171597631E-002   0.0000000000000000        0.0000000000000000     
   2.6627218934911240E-002   0.0000000000000000        0.0000000000000000     
   3.2544378698224852E-002   0.0000000000000000        0.0000000000000000     
   3.8461538461538464E-002   0.0000000000000000        0.0000000000000000     
   4.4378698224852076E-002   0.0000000000000000        0.0000000000000000     
   5.0295857988165688E-002   0.0000000000000000        0.0000000000000000     
   5.6213017751479299E-002   0.0000000000000000        0.0000000000000000     
   6.2130177514792911E-002   0.0000000000000000        0.0000000000000000     
   6.8047337278106523E-002   0.0000000000000000        0.0000000000000000     
   7.3964497041420135E-002   0.0000000000000000        0.0000000000000000     
   7.9881656804733747E-002   0.0000000000000000        0.0000000000000000     
   8.5798816568047359E-002   0.0000000000000000        0.0000000000000000     
   9.1715976331360971E-002   0.0000000000000000        0.0000000000000000     
   9.7633136094674583E-002   0.0000000000000000        0.0000000000000000     
  0.10355029585798819        0.0000000000000000        0.0000000000000000     
  0.10946745562130181        0.0000000000000000        0.0000000000000000     
  0.11538461538461542        0.0000000000000000        0.0000000000000000     
  0.12130177514792903        0.0000000000000000        0.0000000000000000     
  0.12721893491124264        0.0000000000000000        0.0000000000000000     
  0.13313609467455625        0.0000000000000000        0.0000000000000000     
  0.13905325443786987        0.0000000000000000        0.0000000000000000     
  0.14497041420118348        0.0000000000000000        0.0000000000000000     
  0.15088757396449709        0.0000000000000000        0.0000000000000000     
  0.15680473372781070        0.0000000000000000        0.0000000000000000     
  0.16272189349112431        0.0000000000000000        0.0000000000000000     
  0.16863905325443793        0.0000000000000000        0.0000000000000000     
  0.17455621301775154        0.0000000000000000        0.0000000000000000     
  0.18047337278106515        0.0000000000000000        0.0000000000000000     
  0.18639053254437876        0.0000000000000000        0.0000000000000000     
  0.19230769230769237        0.0000000000000000        0.0000000000000000     
  0.19822485207100599        0.0000000000000000        0.0000000000000000     
  0.20414201183431960        0.0000000000000000        0.0000000000000000     
  0.21005917159763321        0.0000000000000000        0.0000000000000000     
  0.21597633136094682        0.0000000000000000        0.0000000000000000     
  0.22189349112426043        0.0000000000000000        0.0000000000000000     
  0.22781065088757405        0.0000000000000000        0.0000000000000000     
  0.23372781065088766        0.0000000000000000        0.0000000000000000     
  0.23964497041420127        0.0000000000000000        0.0000000000000000     
  0.24556213017751488        0.0000000000000000        0.0000000000000000     
  0.25147928994082847        0.0000000000000000        0.0000000000000000     
  0.25739644970414205        0.0000000000000000        0.0000000000000000     
  0.26331360946745563        0.0000000000000000        0.0000000000000000     
  0.26923076923076922        0.0000000000000000        0.0000000000000000     
  0.27514792899408280        0.0000000000000000        0.0000000000000000     
  0.28106508875739639        0.0000000000000000        0.0000000000000000     
  0.28698224852070997        0.0000000000000000        0.0000000000000000     
  0.29289940828402355        0.0000000000000000        0.0000000000000000     
  0.29881656804733714        0.0000000000000000        0.0000000000000000     
  0.30473372781065072        0.0000000000000000        0.0000000000000000     
  0.31065088757396431        0.0000000000000000        0.0000000000000000     
  0.31656804733727789        0.0000000000000000        0.0000000000000000     
  0.32248520710059148        0.0000000000000000        0.0000000000000000     
  0.32840236686390506        0.0000000000000000        0.0000000000000000     
  0.33431952662721864        0.0000000000000000        0.0000000000000000     
  0.34023668639053223        0.0000000000000000        0.0000000000000000     
  0.34615384615384581        0.0000000000000000        0.0000000000000000     
  0.35207100591715940        0.0000000000000000        0.0000000000000000     
  0.35798816568047298        0.0000000000000000        0.0000000000000000     
  0.36390532544378656        0.0000000000000000        0.0000000000000000     
  0.36982248520710015        0.0000000000000000        0.0000000000000000     
  0.37573964497041373        0.0000000000000000        0.0000000000000000     
  0.38165680473372732        0.0000000000000000        0.0000000000000000     
  0.38757396449704090        0.0000000000000000        0.0000000000000000     
  0.39349112426035449        0.0000000000000000        0.0000000000000000     
  0.39940828402366807        0.0000000000000000        0.0000000000000000     
  0.40532544378698165        0.0000000000000000        0.0000000000000000     
  0.41124260355029524        0.0000000000000000        0.0000000000000000     
  0.41715976331360882        0.0000000000000000        0.0000000000000000     
  0.42307692307692241        0.0000000000000000        0.0000000000000000     
  0.42899408284023599        0.0000000000000000        0.0000000000000000     
  0.43491124260354957        0.0000000000000000        0.0000000000000000     
  0.44082840236686316        0.0000000000000000        0.0000000000000000     
  0.44674556213017674        0.0000000000000000        0.0000000000000000     
  0.45266272189349033        0.0000000000000000        0.0000000000000000     
  0.45857988165680391        0.0000000000000000        0.0000000000000000     
  0.46449704142011750        0.0000000000000000        0.0000000000000000     
  0.47041420118343108        0.0000000000000000        0.0000000000000000     
  0.47633136094674466        0.0000000000000000        0.0000000000000000     
  0.48224852071005825        0.0000000000000000        0.0000000000000000     
  0.48816568047337183        0.0000000000000000        0.0000000000000000     
  0.49408284023668542        0.0000000000000000        0.0000000000000000     
  0.49999999999999900        0.0000000000000000        0.0000000000000000     
  0.50591715976331264        0.0000000000000000        0.0000000000000000     
  0.51183431952662628        0.0000000000000000        0.0000000000000000     
  0.51775147928993992        0.0000000000000000        0.0000000000000000     
  0.52366863905325356        0.0000000000000000        0.0000000000000000     
  0.52958579881656720        0.0000000000000000        0.0000000000000000     
  0.53550295857988084        0.0000000000000000        0.0000000000000000     
  0.54142011834319448        0.0000000000000000        0.0000000000000000     
  0.54733727810650812        0.0000000000000000        0.0000000000000000     
  0.55325443786982176        0.0000000000000000        0.0000000000000000     
  0.55917159763313540        0.0000000000000000        0.0000000000000000     
  0.56508875739644904        0.0000000000000000        0.0000000000000000     
  0.57100591715976268        0.0000000000000000        0.0000000000000000     
  0.57692307692307632        0.0000000000000000        0.0000000000000000     
  0.58284023668638996        0.0000000000000000        0.0000000000000000     
  0.58875739644970360        0.0000000000000000        0.0000000000000000     
  0.59467455621301724        0.0000000000000000        0.0000000000000000     
  0.60059171597633088        0.0000000000000000        0.0000000000000000     
  0.60650887573964452        0.0000000000000000        0.0000000000000000     
  0.61242603550295815        0.0000000000000000        0.0000000000000000     
  0.61834319526627179        0.0000000000000000        0.0000000000000000     
  0.62426035502958543        0.0000000000000000        0.0000000000000000     
  0.63017751479289907        0.0000000000000000        0.0000000000000000     
  0.63609467455621271        0.0000000000000000        0.0000000000000000     
  0.64201183431952635        0.0000000000000000        0.0000000000000000     
  0.64792899408283999        0.0000000000000000        0.0000000000000000     
  0.65384615384615363        0.0000000000000000        0.0000000000000000     
  0.65976331360946727        0.0000000000000000        0.0000000000000000     
  0.66568047337278091        0.0000000000000000        0.0000000000000000     
  0.67159763313609455        0.0000000000000000        0.0000000000000000     
  0.67751479289940819        0.0000000000000000        0.0000000000000000     
  0.68343195266272183        0.0000000000000000        0.0000000000000000     
  0.68934911242603547        0.0000000000000000        0.0000000000000000     
  0.69526627218934911        0.0000000000000000        0.0000000000000000     
  0.70118343195266275        0.0000000000000000        0.0000000000000000     
  0.70710059171597639        0.0000000000000000        0.0000000000000000     
  0.71301775147929003        0.0000000000000000        0.0000000000000000     
  0.71893491124260367        0.0000000000000000        0.0000000000000000     
  0.72485207100591731        0.0000000000000000        0.0000000000000000     
  0.73076923076923095        0.0000000000000000        0.0000000000000000     
  0.73668639053254459        0.0000000000000000        0.0000000000000000     
  0.74260355029585823        0.0000000000000000        0.0000000000000000     
  0.74852071005917187        0.0000000000000000        0.0000000000000000     
  0.75443786982248551        0.0000000000000000        0.0000000000000000     
  0.76035502958579915        0.0000000000000000        0.0000000000000000     
  0.76627218934911279        0.0000000000000000        0.0000000000000000     
  0.77218934911242643        0.0000000000000000        0.0000000000000000     
  0.77810650887574007        0.0000000000000000        0.0000000000000000     
  0.78402366863905371        0.0000000000000000        0.0000000000000000     
  0.78994082840236735        0.0000000000000000        0.0000000000000000     
  0.79585798816568099        0.0000000000000000        0.0000000000000000     
  0.80177514792899462        0.0000000000000000        0.0000000000000000     
  0.80769230769230826        0.0000000000000000        0.0000000000000000     
  0.81360946745562190        0.0000000000000000        0.0000000000000000     
  0.81952662721893554        0.0000000000000000        0.0000000000000000     
  0.82544378698224918        0.0000000000000000        0.0000000000000000     
  0.83136094674556282        0.0000000000000000        0.0000000000000000     
  0.83727810650887646        0.0000000000000000        0.0000000000000000     
  0.84319526627219010        0.0000000000000000        0.0000000000000000     
  0.84911242603550374        0.0000000000000000        0.0000000000000000     
  0.85502958579881738        0.0000000000000000        0.0000000000000000     
  0.86094674556213102        0.0000000000000000        0.0000000000000000     
  0.86686390532544466        0.0000000000000000        0.0000000000000000     
  0.87278106508875830        0.0000000000000000        0.0000000000000000     
  0.87869822485207194        0.0000000000000000        0.0000000000000000     
  0.88461538461538558        0.0000000000000000        0.0000000000000000     
  0.89053254437869922        0.0000000000000000        0.0000000000000000     
  0.89644970414201286        0.0000000000000000        0.0000000000000000     
  0.90236686390532650        0.0000000000000000        0.0000000000000000     
  0.90828402366864014        0.0000000000000000        0.0000000000000000     
  0.91420118343195378        0.0000000000000000        0.0000000000000000     
  0.92011834319526742        0.0000000000000000        0.0000000000000000     
  0.92603550295858106        0.0000000000000000        0.0000000000000000     
  0.93195266272189470        0.0000000000000000        0.0000000000000000     
  0.93786982248520834        0.0000000000000000        0.0000000000000000     
  0.94378698224852198        0.0000000000000000        0.0000000000000000     
  0.94970414201183562        0.0000000000000000        0.0000000000000000     
  0.95562130177514926        0.0000000000000000        0.0000000000000000     
  0.96153846153846290        0.0000000000000000        0.0000000000000000     
  0.96745562130177654        0.0000000000000000        0.0000000000000000     
  0.97337278106509018        0.0000000000000000        0.0000000000000000     
  0.97928994082840382        0.0000000000000000        0.0000000000000000     
  0.98520710059171746        0.0000000000000000        0.0000000000000000     
  0.99112426035503109        0.0000000000000000        0.0000000000000000     
  0.99704142011834473        0.0000000000000000        0.0000000000000000     
   1.0000000000000000        0.0000000000000000        0.0000000000000000     
   0.0000000000000000        2.9585798816568047E-003   0.0000000000000000     
   2.9585798816568047E-003   2.9585798816568047E-003   2.0091500824653808E-006
   8.8757396449704144E-003   2.9585798816568047E-003  -2.2782205665364835E-006
   1.4792899408284023E-002   2.9585798816568047E-003   7.7696376750426012E-006
   2.0710059171597631E-002   2.9585798816568047E-003   2.3822360375770932E-005
   2.6627218934911240E-002   2.9585798816568047E-003   4.2421672254686880E-005
   3.2544378698224852E-002   2.9585798816568047E-003   6.1623583708351893E-005
   3.8461538461538464E-002   2.9585798816568047E-003   7.9954353971542169E-005
   4.4378698224852076E-002   2.9585798816568047E-003   9.6337578538612737E-005
   5.0295857988165688E-002   2.9585798816568047E-003   1.1003227692405990E-004
   5.6213017751479299E-002   2.9585798816568047E-003   1.2054130635876191E-004
   6.2130177514792911E-002   2.9585798816568047E-003   1.2754431600821338E-004
   6.8047337278106523E-002   2.9585798816568047E-003   1.3085204157778837E-004
   7.3964497041420135E-002   2.9585798816568047E-003   1.3037264739465865E-004
   7.9881656804733747E-002   2.9585798816568047E-003   1.2608624517339084E-004
   8.5798816568047359E-002   2.9585798816568047E-003   1.1802518860528850E-004
   9.1715976331360971E-002   2.9585798816568047E-003   1.0625878480609801E-004
   9.7633136094674583E-002   2.9585798816568047E-003   9.0881133746033115E-005
  0.10355029585798819        2.9585798816568047E-003   7.2001561114322314E-005
  0.10946745562130181        2.9585798816568047E-003   4.9737386217256630E-005
  0.11538461538461542        2.9585798816568047E-003   2.4208065777345338E-005
  0.12130177514792903        2.9585798816568047E-003  -4.4691217112965935E-006
  0.12721893491124264        2.9585798816568047E-003  -3.6182578972820411E-005
  0.13313609467455625        2.9585798816568047E-003  -7.0828830504758897E-005
  0.13905325443786987        2.9585798816568047E-003  -1.0831429303684500E-004
  0.14497041420118348        2.9585798816568047E-003  -1.4855581213647008E-004
  0.15088757396449709        2.9585798816568047E-003  -1.9148105231475121E-004
  0.15680473372781070        2.9585798816568047E-003  -2.3702838657523742E-004
  0.16272189349112431        2.9585798816568047E-003  -2.8514645152228523E-004
  0.16863905325443793        2.9585798816568047E-003  -3.3579343331396075E-004
  0.17455621301775154        2.9585798816568047E-003  -3.8893614413740578E-004
  0.18047337278106515        2.9585798816568047E-003  -4.4454894490435128E-004
  0.18639053254437876        2.9585798816568047E-003  -5.0261256189636835E-004
  0.19230769230769237        2.9585798816568047E-003  -5.6311283744213381E-004
  0.19822485207100599        2.9585798816568047E-003  -6.2603944795183340E-004
  0.20414201183431960        2.9585798816568047E-003  -6.9138461660655083E-004
  0.21005917159763321        2.9585798816568047E-003  -7.5914184263459585E-004
  0.21597633136094682        2.9585798816568047E-003  -8.2930466437520969E-004
  0.22189349112426043        2.9585798816568047E-003  -9.0186546920353286E-004
  0.22781065088757405        2.9585798816568047E-003  -9.7681435983612173E-004
  0.23372781065088766        2.9585798816568047E-003  -1.0541380835268315E-003
  0.23964497041420127        2.9585798816568047E-003  -1.1338190281530139E-003
  0.24556213017751488        2.9585798816568047E-003  -1.2158342871596548E-003
  0.25147928994082847        2.9585798816568047E-003  -1.3001547937277938E-003
  0.25739644970414205        2.9585798816568047E-003  -1.3867445233208271E-003
  0.26331360946745563        2.9585798816568047E-003  -1.4755597629035045E-003
  0.26923076923076922        2.9585798816568047E-003  -1.5665484445754247E-003
  0.27514792899408280        2.9585798816568047E-003  -1.6596495410703630E-003
  0.28106508875739639        2.9585798816568047E-003  -1.7547925205038970E-003
  0.28698224852070997        2.9585798816568047E-003  -1.8518968578666820E-003
  0.29289940828402355        2.9585798816568047E-003  -1.9508716010114028E-003
  0.29881656804733714        2.9585798816568047E-003  -2.0516149892417868E-003
  0.30473372781065072        2.9585798816568047E-003  -2.1540141230416503E-003
  0.31065088757396431        2.9585798816568047E-003  -2.2579446839531931E-003
  0.31656804733727789        2.9585798816568047E-003  -2.3632707041038774E-003
  0.32248520710059148        2.9585798816568047E-003  -2.4698443853594710E-003
  0.32840236686390506        2.9585798816568047E-003  -2.5775059685393866E-003
  0.33431952662721864        2.9585798816568047E-003  -2.6860836535467845E-003
  0.34023668639053223        2.9585798816568047E-003  -2.7953935716304732E-003
  0.34615384615384581        2.9585798816568047E-003  -2.9052398113020455E-003
  0.35207100591715940        2.9585798816568047E-003  -3.0154144996742825E-003
  0.35798816568047298        2.9585798816568047E-003  -3.1256979411578316E-003
  0.36390532544378656        2.9585798816568047E-003  -3.2358588155589258E-003
  0.36982248520710015        2.9585798816568047E-003  -3.3456544376566011E-003
  0.37573964497041373        2.9585798816568047E-003  -3.4548310803069813E-003
  0.38165680473372732        2.9585798816568047E-003  -3.5631243630296016E-003
  0.38757396449704090        2.9585798816568047E-003  -3.6702597078791237E-003
  0.39349112426035449        2.9585798816568047E-003  -3.7759528642020914E-003
  0.39940828402366807        2.9585798816568047E-003  -3.8799105036275532E-003
  0.40532544378698165        2.9585798816568047E-003  -3.9818308863465834E-003
  0.41124260355029524        2.9585798816568047E-003  -4.0814045994125815E-003
  0.41715976331360882        2.9585798816568047E-003  -4.1783153674377670E-003
  0.42307692307692241        2.9585798816568047E-003  -4.2722409356833546E-003
  0.42899408284023599        2.9585798816568047E-003  -4.3628540251402070E-003
  0.43491124260354957        2.9585798816568047E-003  -4.4498233587722440E-003
  0.44082840236686316        2.9585798816568047E-003  -4.5328147576263996E-003
  0.44674556213017674        2.9585798816568047E-003  -4.6114923049444213E-003
  0.45266272189349033        2.9585798816568047E-003  -4.6855195756390008E-003
  0.45857988165680391        2.9585798816568047E-003  -4.7545609276788640E-003
  0.46449704142011750        2.9585798816568047E-003  -4.8182828513883471E-003
  0.47041420118343108        2.9585798816568047E-003  -4.8763553691065688E-003
  0.47633136094674466        2.9585798816568047E-003  -4.9284534654611654E-003
  0.48224852071005825        2.9585798816568047E-003  -4.9742585584216341E-003
  0.48816568047337183        2.9585798816568047E-003  -5.0134602196316479E-003
  0.49408284023668542        2.9585798816568047E-003  -5.0457581186509545E-003
  0.49999999999999900        2.9585798816568047E-003  -5.0708615249817138E-003
  0.50591715976331264        2.9585798816568047E-003  -5.0884872551616358E-003
  0.51183431952662628        2.9585798816568047E-003  -5.0984053385417739E-003
  0.51775147928993992        2.9585798816568047E-003  -5.1003917955031513E-003
  0.52366863905325356        2.9585798816568047E-003  -5.0942802441372873E-003
  0.52958579881656720        2.9585798816568047E-003  -5.0799368511693704E-003
  0.53550295857988084        2.9585798816568047E-003  -5.0572344810874805E-003
  0.54142011834319448        2.9585798816568047E-003  -5.0260625472773835E-003
  0.54733727810650812        2.9585798816568047E-003  -4.9863351164561422E-003
  0.55325443786982176        2.9585798816568047E-003  -4.9379948490018734E-003
  0.55917159763313540        2.9585798816568047E-003  -4.8810159035737079E-003
  0.56508875739644904        2.9585798816568047E-003  -4.8154062935369503E-003
  0.57100591715976268        2.9585798816568047E-003  -4.7412097214236514E-003
  0.57692307692307632        2.9585798816568047E-003  -4.6585070159159397E-003
  0.58284023668638996        2.9585798816568047E-003  -4.5674172564055936E-003
  0.58875739644970360        2.9585798816568047E-003  -4.4680986178828848E-003
  0.59467455621301724        2.9585798816568047E-003  -4.3607489454775394E-003
  0.60059171597633088        2.9585798816568047E-003  -4.2456060572925872E-003
  0.60650887573964452        2.9585798816568047E-003  -4.1229477684543289E-003
  0.61242603550295815        2.9585798816568047E-003  -3.9930916267694166E-003
  0.61834319526627179        2.9585798816568047E-003  -3.8563943499274741E-003
  0.62426035502958543        2.9585798816568047E-003  -3.7132509550561548E-003
  0.63017751479289907        2.9585798816568047E-003  -3.5640935731786911E-003
  0.63609467455621271        2.9585798816568047E-003  -3.4093899435222634E-003
  0.64201183431952635        2.9585798816568047E-003  -3.2496415855267197E-003
  0.64792899408283999        2.9585798816568047E-003  -3.0853816497210668E-003
  0.65384615384615363        2.9585798816568047E-003  -2.9171724522891202E-003
  0.65976331360946727        2.9585798816568047E-003  -2.7456027020787100E-003
  0.66568047337278091        2.9585798816568047E-003  -2.5712844329569568E-003
  0.67159763313609455        2.9585798816568047E-003  -2.3948496587149841E-003
  0.67751479289940819        2.9585798816568047E-003  -2.2169467721217966E-003
  0.68343195266272183        2.9585798816568047E-003  -2.0382367141441706E-003
  0.68934911242603547        2.9585798816568047E-003  -1.8593889437505341E-003
  0.69526627218934911        2.9585798816568047E-003  -1.6810772430556451E-003
  0.70118343195266275        2.9585798816568047E-003  -1.5039753968956967E-003
  0.70710059171597639        2.9585798816568047E-003  -1.3287527904003648E-003
  0.71301775147929003        2.9585798816568047E-003  -1.1560699730965784E-003
  0.71893491124260367        2.9585798816568047E-003  -9.8657424473378146E-004
  0.72485207100591731        2.9585798816568047E-003  -8.2089533036781924E-004
  0.73076923076923095        2.9585798816568047E-003  -6.5964123344703317E-004
  0.73668639053254459        2.9585798816568047E-003  -5.0339436626554025E-004
  0.74260355029585823        2.9585798816568047E-003  -3.5270810071958163E-004
  0.74852071005917187        2.9585798816568047E-003  -2.0810454565607330E-004
  0.75443786982248551        2.9585798816568047E-003  -7.0075135914367728E-005
  0.76035502958579915        2.9585798816568047E-003   6.0924716838338080E-005
  0.76627218934911279        2.9585798816568047E-003   1.8447300253809465E-004
  0.77218934911242643        2.9585798816568047E-003   3.0020452556809972E-004
  0.77810650887574007        2.9585798816568047E-003   4.0782477635419631E-004
  0.78402366863905371        2.9585798816568047E-003   5.0708784248413295E-004
  0.78994082840236735        2.9585798816568047E-003   5.9779468166847169E-004
  0.79585798816568099        2.9585798816568047E-003   6.7979346456913646E-004
  0.80177514792899462        2.9585798816568047E-003   7.5297979220369791E-004
  0.80769230769230826        2.9585798816568047E-003   8.1729677776649478E-004
  0.81360946745562190        2.9585798816568047E-003   8.7273468055534841E-004
  0.81952662721893554        2.9585798816568047E-003   9.1933002362918747E-004
  0.82544378698224918        2.9585798816568047E-003   9.5716429462997367E-004
  0.83136094674556282        2.9585798816568047E-003   9.8636232259881871E-004
  0.83727810650887646        2.9585798816568047E-003   1.0070904111174938E-003
  0.84319526627219010        2.9585798816568047E-003   1.0195543178238976E-003
  0.84911242603550374        2.9585798816568047E-003   1.0239970248387418E-003
  0.85502958579881738        2.9585798816568047E-003   1.0206957207386852E-003
  0.86094674556213102        2.9585798816568047E-003   1.0099583840425788E-003
  0.86686390532544466        2.9585798816568047E-003   9.9212593489651324E-004
  0.87278106508875830        2.9585798816568047E-003   9.6756525299797607E-004
  0.87869822485207194        2.9585798816568047E-003   9.3666813206744583E-004
  0.88461538461538558        2.9585798816568047E-003   8.9985507861007827E-004
  0.89053254437869922        2.9585798816568047E-003   8.5757542973408400E-004
  0.89644970414201286        2.9585798816568047E-003   8.1031056098160943E-004
  0.90236686390532650        2.9585798816568047E-003   7.5857741947929296E-004
  0.90828402366864014        2.9585798816568047E-003   7.0293317567905744E-004
  0.91420118343195378        2.9585798816568047E-003   6.4398130291944090E-004
  0.92011834319526742        2.9585798816568047E-003   5.8237926357968635E-004
  0.92603550295858106        2.9585798816568047E-003   5.1884803004597637E-004
  0.93195266272189470        2.9585798816568047E-003   4.5418368295779810E-004
  0.93786982248520834        2.9585798816568047E-003   3.8927130456341508E-004
  0.94378698224852198        2.9585798816568047E-003   3.2510130517422335E-004
  0.94970414201183562        2.9585798816568047E-003   2.6278784385854348E-004
  0.95562130177514926        2.9585798816568047E-003   2.0358706056369734E-004
  0.96153846153846290        2.9585798816568047E-003   1.4891079141661934E-004
  0.96745562130177654        2.9585798816568047E-003   1.0033737834030971E-004
  0.97337278106509018        2.9585798816568047E-003   5.9596168529835957E-005
  0.97928994082840382        2.9585798816568047E-003   2.8254641669118712E-005
  0.98520710059171746        2.9585798816568047E-003   6.7648172388415214E-006
  0.99112426035503109        2.9585798816568047E-003  -4.3531679252615380E-006
  0.99704142011834473        2.9585798816568047E-003   3.1808167644878303E-006
   1.0000000000000000        2.9585798816568047E-003   0.0000000000000000     
   0.0000000000000000        8.8757396449704144E-003   0.0000000000000000     
   2.9585798816568047E-003   8.8757396449704144E-003   5.0057476404603093E-006
   8.8757396449704144E-003   8.8757396449704144E-003   6.6678722344325069E-006
   1.4792899408284023E-002   8.8757396449704144E-003   3.1764035814953104E-005
   2.0710059171597631E-002   8.8757396449704144E-003   6.8037744266020571E-005
   2.6627218934911240E-002   8.8757396449704144E-003   1.0930414996049598E-004
   3.2544378698224852E-002   8.8757396449704144E-003   1.5159352304700525E-004
   3.8461538461538464E-002   8.8757396449704144E-003   1.9157746755142188E-004
   4.4378698224852076E-002   8.8757396449704144E-003   2.2662408989202067E-004
   5.0295857988165688E-002   8.8757396449704144E-003   2.5478473795649640E-004
   5.6213017751479299E-002   8.8757396449704144E-003   2.7466071193819343E-004
   6.2130177514792911E-002   8.8757396449704144E-003   2.8528450582300535E-004
   6.8047337278106523E-002   8.8757396449704144E-003   2.8602719409691297E-004
   7.3964497041420135E-002   8.8757396449704144E-003   2.7652308528734959E-004
   7.9881656804733747E-002   8.8757396449704144E-003   2.5660866281720945E-004
   8.5798816568047359E-002   8.8757396449704144E-003   2.2627228836944173E-004
   9.1715976331360971E-002   8.8757396449704144E-003   1.8561469153992530E-004
   9.7633136094674583E-002   8.8757396449704144E-003   1.3481671471962198E-004
  0.10355029585798819        8.8757396449704144E-003   7.4111491885932805E-005
  0.10946745562130181        8.8757396449704144E-003   3.7656727077770380E-006
  0.11538461538461542        8.8757396449704144E-003  -7.5938553148380592E-005
  0.12130177514792903        8.8757396449704144E-003  -1.6471415055565027E-004
  0.12721893491124264        8.8757396449704144E-003  -2.6228492176779474E-004
  0.13313609467455625        8.8757396449704144E-003  -3.6838839464527093E-004
  0.13905325443786987        8.8757396449704144E-003  -4.8278184212186893E-004
  0.14497041420118348        8.8757396449704144E-003  -6.0524537544432203E-004
  0.15088757396449709        8.8757396449704144E-003  -7.3558355158840076E-004
  0.15680473372781070        8.8757396449704144E-003  -8.7362574402393290E-004
  0.16272189349112431        8.8757396449704144E-003  -1.0192254967770588E-003
  0.16863905325443793        8.8757396449704144E-003  -1.1722590640937801E-003
  0.17455621301775154        8.8757396449704144E-003  -1.3326233141978500E-003
  0.18047337278106515        8.8757396449704144E-003  -1.5002331523979464E-003
  0.18639053254437876        8.8757396449704144E-003  -1.6750185971696153E-003
  0.19230769230769237        8.8757396449704144E-003  -1.8569216230853247E-003
  0.19822485207100599        8.8757396449704144E-003  -2.0458928665408375E-003
  0.20414201183431960        8.8757396449704144E-003  -2.2418882740317453E-003