 title=Umag
 variables=x,y,Umag
 zone i=         121 ,j=         121
 
   0.0000000000000000        0.0000000000000000        0.0000000000000000     
   4.2016806722689074E-003   0.0000000000000000        0.0000000000000000     
   1.2605042016806723E-002   0.0000000000000000        0.0000000000000000     
   2.1008403361344540E-002   0.0000000000000000        0.0000000000000000     
   2.9411764705882353E-002   0.0000000000000000        0.0000000000000000     
   3.7815126050420166E-002   0.0000000000000000        0.0000000000000000     
   4.6218487394957979E-002   0.0000000000000000        0.0000000000000000     
   5.4621848739495792E-002   0.0000000000000000        0.0000000000000000     
   6.3025210084033612E-002   0.0000000000000000        0.0000000000000000     
   7.1428571428571425E-002   0.0000000000000000        0.0000000000000000     
   7.9831932773109238E-002   0.0000000000000000        0.0000000000000000     
   8.8235294117647051E-002   0.0000000000000000        0.0000000000000000     
   9.6638655462184864E-002   0.0000000000000000        0.0000000000000000     
  0.10504201680672268        0.0000000000000000        0.0000000000000000     
  0.11344537815126049        0.0000000000000000        0.0000000000000000     
  0.12184873949579830        0.0000000000000000        0.0000000000000000     
  0.13025210084033612        0.0000000000000000        0.0000000000000000     
  0.13865546218487393        0.0000000000000000        0.0000000000000000     
  0.14705882352941174        0.0000000000000000        0.0000000000000000     
  0.15546218487394955        0.0000000000000000        0.0000000000000000     
  0.16386554621848737        0.0000000000000000        0.0000000000000000     
  0.17226890756302518        0.0000000000000000        0.0000000000000000     
  0.18067226890756299        0.0000000000000000        0.0000000000000000     
  0.18907563025210081        0.0000000000000000        0.0000000000000000     
  0.19747899159663862        0.0000000000000000        0.0000000000000000     
  0.20588235294117643        0.0000000000000000        0.0000000000000000     
  0.21428571428571425        0.0000000000000000        0.0000000000000000     
  0.22268907563025206        0.0000000000000000        0.0000000000000000     
  0.23109243697478987        0.0000000000000000        0.0000000000000000     
  0.23949579831932769        0.0000000000000000        0.0000000000000000     
  0.24789915966386550        0.0000000000000000        0.0000000000000000     
  0.25630252100840334        0.0000000000000000        0.0000000000000000     
  0.26470588235294118        0.0000000000000000        0.0000000000000000     
  0.27310924369747902        0.0000000000000000        0.0000000000000000     
  0.28151260504201686        0.0000000000000000        0.0000000000000000     
  0.28991596638655470        0.0000000000000000        0.0000000000000000     
  0.29831932773109254        0.0000000000000000        0.0000000000000000     
  0.30672268907563038        0.0000000000000000        0.0000000000000000     
  0.31512605042016822        0.0000000000000000        0.0000000000000000     
  0.32352941176470607        0.0000000000000000        0.0000000000000000     
  0.33193277310924391        0.0000000000000000        0.0000000000000000     
  0.34033613445378175        0.0000000000000000        0.0000000000000000     
  0.34873949579831959        0.0000000000000000        0.0000000000000000     
  0.35714285714285743        0.0000000000000000        0.0000000000000000     
  0.36554621848739527        0.0000000000000000        0.0000000000000000     
  0.37394957983193311        0.0000000000000000        0.0000000000000000     
  0.38235294117647095        0.0000000000000000        0.0000000000000000     
  0.39075630252100879        0.0000000000000000        0.0000000000000000     
  0.39915966386554663        0.0000000000000000        0.0000000000000000     
  0.40756302521008447        0.0000000000000000        0.0000000000000000     
  0.41596638655462231        0.0000000000000000        0.0000000000000000     
  0.42436974789916015        0.0000000000000000        0.0000000000000000     
  0.43277310924369800        0.0000000000000000        0.0000000000000000     
  0.44117647058823584        0.0000000000000000        0.0000000000000000     
  0.44957983193277368        0.0000000000000000        0.0000000000000000     
  0.45798319327731152        0.0000000000000000        0.0000000000000000     
  0.46638655462184936        0.0000000000000000        0.0000000000000000     
  0.47478991596638720        0.0000000000000000        0.0000000000000000     
  0.48319327731092504        0.0000000000000000        0.0000000000000000     
  0.49159663865546288        0.0000000000000000        0.0000000000000000     
  0.50000000000000067        0.0000000000000000        0.0000000000000000     
  0.50840336134453845        0.0000000000000000        0.0000000000000000     
  0.51680672268907624        0.0000000000000000        0.0000000000000000     
  0.52521008403361402        0.0000000000000000        0.0000000000000000     
  0.53361344537815181        0.0000000000000000        0.0000000000000000     
  0.54201680672268959        0.0000000000000000        0.0000000000000000     
  0.55042016806722738        0.0000000000000000        0.0000000000000000     
  0.55882352941176516        0.0000000000000000        0.0000000000000000     
  0.56722689075630295        0.0000000000000000        0.0000000000000000     
  0.57563025210084073        0.0000000000000000        0.0000000000000000     
  0.58403361344537852        0.0000000000000000        0.0000000000000000     
  0.59243697478991630        0.0000000000000000        0.0000000000000000     
  0.60084033613445409        0.0000000000000000        0.0000000000000000     
  0.60924369747899187        0.0000000000000000        0.0000000000000000     
  0.61764705882352966        0.0000000000000000        0.0000000000000000     
  0.62605042016806745        0.0000000000000000        0.0000000000000000     
  0.63445378151260523        0.0000000000000000        0.0000000000000000     
  0.64285714285714302        0.0000000000000000        0.0000000000000000     
  0.65126050420168080        0.0000000000000000        0.0000000000000000     
  0.65966386554621859        0.0000000000000000        0.0000000000000000     
  0.66806722689075637        0.0000000000000000        0.0000000000000000     
  0.67647058823529416        0.0000000000000000        0.0000000000000000     
  0.68487394957983194        0.0000000000000000        0.0000000000000000     
  0.69327731092436973        0.0000000000000000        0.0000000000000000     
  0.70168067226890751        0.0000000000000000        0.0000000000000000     
  0.71008403361344530        0.0000000000000000        0.0000000000000000     
  0.71848739495798308        0.0000000000000000        0.0000000000000000     
  0.72689075630252087        0.0000000000000000        0.0000000000000000     
  0.73529411764705865        0.0000000000000000        0.0000000000000000     
  0.74369747899159644        0.0000000000000000        0.0000000000000000     
  0.75210084033613422        0.0000000000000000        0.0000000000000000     
  0.76050420168067201        0.0000000000000000        0.0000000000000000     
  0.76890756302520979        0.0000000000000000        0.0000000000000000     
  0.77731092436974758        0.0000000000000000        0.0000000000000000     
  0.78571428571428537        0.0000000000000000        0.0000000000000000     
  0.79411764705882315        0.0000000000000000        0.0000000000000000     
  0.80252100840336094        0.0000000000000000        0.0000000000000000     
  0.81092436974789872        0.0000000000000000        0.0000000000000000     
  0.81932773109243651        0.0000000000000000        0.0000000000000000     
  0.82773109243697429        0.0000000000000000        0.0000000000000000     
  0.83613445378151208        0.0000000000000000        0.0000000000000000     
  0.84453781512604986        0.0000000000000000        0.0000000000000000     
  0.85294117647058765        0.0000000000000000        0.0000000000000000     
  0.86134453781512543        0.0000000000000000        0.0000000000000000     
  0.86974789915966322        0.0000000000000000        0.0000000000000000     
  0.87815126050420100        0.0000000000000000        0.0000000000000000     
  0.88655462184873879        0.0000000000000000        0.0000000000000000     
  0.89495798319327657        0.0000000000000000        0.0000000000000000     
  0.90336134453781436        0.0000000000000000        0.0000000000000000     
  0.91176470588235214        0.0000000000000000        0.0000000000000000     
  0.92016806722688993        0.0000000000000000        0.0000000000000000     
  0.92857142857142771        0.0000000000000000        0.0000000000000000     
  0.93697478991596550        0.0000000000000000        0.0000000000000000     
  0.94537815126050329        0.0000000000000000        0.0000000000000000     
  0.95378151260504107        0.0000000000000000        0.0000000000000000     
  0.96218487394957886        0.0000000000000000        0.0000000000000000     
  0.97058823529411664        0.0000000000000000        0.0000000000000000     
  0.97899159663865443        0.0000000000000000        0.0000000000000000     
  0.98739495798319221        0.0000000000000000        0.0000000000000000     
  0.99579831932773000        0.0000000000000000        0.0000000000000000     
   1.0000000000000000        0.0000000000000000        0.0000000000000000     
   0.0000000000000000        4.2016806722689074E-003   0.0000000000000000     
   4.2016806722689074E-003   4.2016806722689074E-003   3.4817873505477393E-006
   1.2605042016806723E-002   4.2016806722689074E-003   2.1796694220517470E-005
   2.1008403361344540E-002   4.2016806722689074E-003   5.4832165514734913E-005
   2.9411764705882353E-002   4.2016806722689074E-003   9.4996008816736332E-005
   3.7815126050420166E-002   4.2016806722689074E-003   1.3474445337685958E-004
   4.6218487394957979E-002   4.2016806722689074E-003   1.6959669566409541E-004
   5.4621848739495792E-002   4.2016806722689074E-003   1.9667077720936999E-004
   6.3025210084033612E-002   4.2016806722689074E-003   2.1419992233351212E-004
   7.1428571428571425E-002   4.2016806722689074E-003   2.2125263570705022E-004
   7.9831932773109238E-002   4.2016806722689074E-003   2.1746666558342931E-004
   8.8235294117647051E-002   4.2016806722689074E-003   2.0285825325808368E-004
   9.6638655462184864E-002   4.2016806722689074E-003   1.7770174290448497E-004
  0.10504201680672268        4.2016806722689074E-003   1.4248005887575286E-004
  0.11344537815126049        4.2016806722689074E-003   9.8024808455798829E-005
  0.12184873949579830        4.2016806722689074E-003   4.7318877038357069E-005
  0.13025210084033612        4.2016806722689074E-003   3.5774386510156874E-005
  0.13865546218487393        4.2016806722689074E-003   1.0052155446665459E-004
  0.14705882352941174        4.2016806722689074E-003   1.7980123854234402E-004
  0.15546218487394955        4.2016806722689074E-003   2.6793298135918019E-004
  0.16386554621848737        4.2016806722689074E-003   3.6405721540637778E-004
  0.17226890756302518        4.2016806722689074E-003   4.6782152152309895E-004
  0.18067226890756299        4.2016806722689074E-003   5.7902074769733316E-004
  0.18907563025210081        4.2016806722689074E-003   6.9752048059097910E-004
  0.19747899159663862        4.2016806722689074E-003   8.2322838384061355E-004
  0.20588235294117643        4.2016806722689074E-003   9.5607757769778159E-004
  0.21428571428571425        4.2016806722689074E-003   1.0960140193530226E-003
  0.22268907563025206        4.2016806722689074E-003   1.2429856701485216E-003
  0.23109243697478987        4.2016806722689074E-003   1.3969327778158471E-003
  0.23949579831932769        4.2016806722689074E-003   1.5577790642619499E-003
  0.24789915966386550        4.2016806722689074E-003   1.7254237510968959E-003
  0.25630252100840334        4.2016806722689074E-003   1.8997343926177059E-003
  0.26470588235294118        4.2016806722689074E-003   2.0805404897513051E-003
  0.27310924369747902        4.2016806722689074E-003   2.2676278534068074E-003
  0.28151260504201686        4.2016806722689074E-003   2.4607336808008659E-003
  0.28991596638655470        4.2016806722689074E-003   2.6595423065020889E-003
  0.29831932773109254        4.2016806722689074E-003   2.8636815917340908E-003
  0.30672268907563038        4.2016806722689074E-003   3.0727199203277565E-003
  0.31512605042016822        4.2016806722689074E-003   3.2861637767652029E-003
  0.32352941176470607        4.2016806722689074E-003   3.5034558900421168E-003
  0.33193277310924391        4.2016806722689074E-003   3.7239739357159971E-003
  0.34033613445378175        4.2016806722689074E-003   3.9470297967373370E-003
  0.34873949579831959        4.2016806722689074E-003   4.1718693909385098E-003
  0.35714285714285743        4.2016806722689074E-003   4.3976730789356527E-003
  0.36554621848739527        4.2016806722689074E-003   4.6235566704682539E-003
  0.37394957983193311        4.2016806722689074E-003   4.8485730497247028E-003
  0.38235294117647095        4.2016806722689074E-003   5.0717144409805747E-003
  0.39075630252100879        4.2016806722689074E-003   5.2919153349683216E-003
  0.39915966386554663        4.2016806722689074E-003   5.5080560938840636E-003
  0.40756302521008447        4.2016806722689074E-003   5.7189672488962675E-003
  0.41596638655462231        4.2016806722689074E-003   5.9234344983997850E-003
  0.42436974789916015        4.2016806722689074E-003   6.1202044077456859E-003
  0.43277310924369800        4.2016806722689074E-003   6.3079908012966283E-003
  0.44117647058823584        4.2016806722689074E-003   6.4854818257642863E-003
  0.44957983193277368        4.2016806722689074E-003   6.6513476479079020E-003
  0.45798319327731152        4.2016806722689074E-003   6.8042487120820354E-003
  0.46638655462184936        4.2016806722689074E-003   6.9428444281342564E-003
  0.47478991596638720        4.2016806722689074E-003   7.0658023165324742E-003
  0.48319327731092504        4.2016806722689074E-003   7.1718081847476694E-003
  0.49159663865546288        4.2016806722689074E-003   7.2595764564353732E-003
  0.50000000000000067        4.2016806722689074E-003   7.3278526036952094E-003
  0.50840336134453845        4.2016806722689074E-003   7.3754159076884198E-003
  0.51680672268907624        4.2016806722689074E-003   7.4012333129561047E-003
  0.52521008403361402        4.2016806722689074E-003   7.4045067982139679E-003
  0.53361344537815181        4.2016806722689074E-003   7.3844681794605592E-003
  0.54201680672268959        4.2016806722689074E-003   7.3406137791860266E-003
  0.55042016806722738        4.2016806722689074E-003   7.2724878671914404E-003
  0.55882352941176516        4.2016806722689074E-003   7.1797520078400942E-003
  0.56722689075630295        4.2016806722689074E-003   7.0622346749774972E-003
  0.57563025210084073        4.2016806722689074E-003   6.9199530072985216E-003
  0.58403361344537852        4.2016806722689074E-003   6.7531283273646360E-003
  0.59243697478991630        4.2016806722689074E-003   6.5621981986575383E-003
  0.60084033613445409        4.2016806722689074E-003   6.3478248708864551E-003
  0.60924369747899187        4.2016806722689074E-003   6.1109004570938426E-003
  0.61764705882352966        4.2016806722689074E-003   5.8525489778856058E-003
  0.62605042016806745        4.2016806722689074E-003   5.5741251763194478E-003
  0.63445378151260523        4.2016806722689074E-003   5.2772099389953812E-003
  0.64285714285714302        4.2016806722689074E-003   4.9636021647438732E-003
  0.65126050420168080        4.2016806722689074E-003   4.6353069631535357E-003
  0.65966386554621859        4.2016806722689074E-003   4.2945201335857341E-003
  0.66806722689075637        4.2016806722689074E-003   3.9436089695790389E-003
  0.67647058823529416        4.2016806722689074E-003   3.5850895572659886E-003
  0.68487394957983194        4.2016806722689074E-003   3.2216009031690871E-003
  0.69327731092436973        4.2016806722689074E-003   2.8558764713413798E-003
  0.70168067226890751        4.2016806722689074E-003   2.4907141206564486E-003
  0.71008403361344530        4.2016806722689074E-003   2.1289462498142262E-003
  0.71848739495798308        4.2016806722689074E-003   1.7734138963434256E-003
  0.72689075630252087        4.2016806722689074E-003   1.4269539703200892E-003
  0.73529411764705865        4.2016806722689074E-003   1.0924270257871083E-003
  0.74369747899159644        4.2016806722689074E-003   7.7289149898906507E-004
  0.75210084033613422        4.2016806722689074E-003   4.7251840607712007E-004
  0.76050420168067201        4.2016806722689074E-003   2.0480061695073813E-004
  0.76890756302520979        4.2016806722689074E-003   1.4528158863842027E-004
  0.77731092436974758        4.2016806722689074E-003   3.5608605575509160E-004
  0.78571428571428537        4.2016806722689074E-003   5.6987473101381995E-004
  0.79411764705882315        4.2016806722689074E-003   7.6286962809760160E-004
  0.80252100840336094        4.2016806722689074E-003   9.3161617835570501E-004
  0.81092436974789872        4.2016806722689074E-003   1.0749204024442698E-003
  0.81932773109243651        4.2016806722689074E-003   1.1923225059625999E-003
  0.82773109243697429        4.2016806722689074E-003   1.2837944084224209E-003
  0.83613445378151208        4.2016806722689074E-003   1.3496435497506898E-003
  0.84453781512604986        4.2016806722689074E-003   1.3904685801192191E-003
  0.85294117647058765        4.2016806722689074E-003   1.4071290771242760E-003
  0.86134453781512543        4.2016806722689074E-003   1.4007176064898977E-003
  0.86974789915966322        4.2016806722689074E-003   1.3725580257512948E-003
  0.87815126050420100        4.2016806722689074E-003   1.3241130974859039E-003
  0.88655462184873879        4.2016806722689074E-003   1.2570450922611040E-003
  0.89495798319327657        4.2016806722689074E-003   1.1731962373007600E-003
  0.90336134453781436        4.2016806722689074E-003   1.0746112500699310E-003
  0.91176470588235214        4.2016806722689074E-003   9.6357678200615390E-004
  0.92016806722688993        4.2016806722689074E-003   8.4267619901700448E-004
  0.92857142857142771        4.2016806722689074E-003   7.1486518996191812E-004
  0.93697478991596550        4.2016806722689074E-003   5.8357240172619536E-004
  0.94537815126050329        4.2016806722689074E-003   4.5282596611615611E-004
  0.95378151260504107        4.2016806722689074E-003   3.2740285629657620E-004
  0.96218487394957886        4.2016806722689074E-003   2.1298290360331239E-004
  0.97058823529411664        4.2016806722689074E-003   1.1617775206466911E-004
  0.97899159663865443        4.2016806722689074E-003   4.4043822321638278E-005
  0.98739495798319221        4.2016806722689074E-003   7.2362372322501524E-006
  0.99579831932773000        4.2016806722689074E-003   1.1966996552211629E-005
   1.0000000000000000        4.2016806722689074E-003   0.0000000000000000     
   0.0000000000000000        1.2605042016806723E-002   0.0000000000000000     
   4.2016806722689074E-003   1.2605042016806723E-002   1.7119558902727684E-005
   1.2605042016806723E-002   1.2605042016806723E-002   7.0550768927803842E-005
   2.1008403361344540E-002   1.2605042016806723E-002   1.4270323007075744E-004
   2.9411764705882353E-002   1.2605042016806723E-002   2.2264716676952733E-004
   3.7815126050420166E-002   1.2605042016806723E-002   2.9869215026848280E-004
   4.6218487394957979E-002   1.2605042016806723E-002   3.6222403913872245E-004
   5.4621848739495792E-002   1.2605042016806723E-002   4.0667234677782202E-004
   6.3025210084033612E-002   1.2605042016806723E-002   4.2748136681935420E-004
   7.1428571428571425E-002   1.2605042016806723E-002   4.2193502138226121E-004
   7.9831932773109238E-002   1.2605042016806723E-002   3.8883929715639637E-004
   8.8235294117647051E-002   1.2605042016806723E-002   3.2844123736242573E-004
   9.6638655462184864E-002   1.2605042016806723E-002   2.4335273752812411E-004
  0.10504201680672268        1.2605042016806723E-002   1.4622444289660202E-004
  0.11344537815126049        1.2605042016806723E-002   1.2162086760622589E-004
  0.12184873949579830        1.2605042016806723E-002   2.5194283049390575E-004
  0.13025210084033612        1.2605042016806723E-002   4.4094045829458188E-004
  0.13865546218487393        1.2605042016806723E-002   6.6118040132667635E-004
  0.14705882352941174        1.2605042016806723E-002   9.0739444140716392E-004
  0.15546218487394955        1.2605042016806723E-002   1.1775996893242208E-003
  0.16386554621848737        1.2605042016806723E-002   1.4706814461189870E-003
  0.17226890756302518        1.2605042016806723E-002   1.7858820233185731E-003
  0.18067226890756299        1.2605042016806723E-002   2.1226402265903041E-003
  0.18907563025210081        1.2605042016806723E-002   2.4805201418601698E-003
  0.19747899159663862        1.2605042016806723E-002   2.8591676867944370E-003
  0.20588235294117643        1.2605042016806723E-002   3.2582772195248150E-003
  0.21428571428571425        1.2605042016806723E-002   3.6775625456586963E-003
  0.22268907563025206        1.2605042016806723E-002   4.1167304837684566E-003
  0.23109243697478987        1.2605042016806723E-002   4.5754564540948549E-003
  0.23949579831932769        1.2605042016806723E-002   5.0533619979539158E-003
  0.24789915966386550        1.2605042016806723E-002   5.5499942622314032E-003
  0.25630252100840334        1.2605042016806723E-002   6.0648074941430426E-003
  0.26470588235294118        1.2605042016806723E-002   6.5971465645643466E-003
  0.27310924369747902        1.2605042016806723E-002   7.1462325054172226E-003
  0.28151260504201686        1.2605042016806723E-002   7.7111500202004697E-003
  0.28991596638655470        1.2605042016806723E-002   8.2908369106462695E-003
  0.29831932773109254        1.2605042016806723E-002   8.8840753567017358E-003
  0.30672268907563038        1.2605042016806723E-002   9.4894849898674045E-003
  0.31512605042016822        1.2605042016806723E-002   1.0105517709078048E-002
  0.32352941176470607        1.2605042016806723E-002   1.0730454201312868E-002
  0.33193277310924391        1.2605042016806723E-002   1.1362402143793585E-002
  0.34033613445378175        1.2605042016806723E-002   1.1999296079061583E-002
  0.34873949579831959        1.2605042016806723E-002   1.2638898966986542E-002
  0.35714285714285743        1.2605042016806723E-002   1.3278805427830880E-002
  0.36554621848739527        1.2605042016806723E-002   1.3916446697239062E-002
  0.37394957983193311        1.2605042016806723E-002   1.4549097317219114E-002
  0.38235294117647095        1.2605042016806723E-002   1.5173883586831888E-002
  0.39075630252100879        1.2605042016806723E-002   1.5787793792728603E-002
  0.39915966386554663        1.2605042016806723E-002   1.6387690233299262E-002
  0.40756302521008447        1.2605042016806723E-002   1.6970323041656916E-002
  0.41596638655462231        1.2605042016806723E-002   1.7532345802694995E-002
  0.42436974789916015        1.2605042016806723E-002   1.8070332948624399E-002
  0.43277310924369800        1.2605042016806723E-002   1.8580798907095006E-002
  0.44117647058823584        1.2605042016806723E-002   1.9060218971685937E-002
  0.44957983193277368        1.2605042016806723E-002   1.9505051871340839E-002
  0.45798319327731152        1.2605042016806723E-002   1.9911764004501484E-002
  0.46638655462184936        1.2605042016806723E-002   2.0276855279210845E-002
  0.47478991596638720        1.2605042016806723E-002   2.0596886990151091E-002
  0.48319327731092504        1.2605042016806723E-002   2.0868513792398399E-002
  0.49159663865546288        1.2605042016806723E-002   2.1088519454934819E-002
  0.50000000000000067        1.2605042016806723E-002   2.1253840592546699E-002
  0.50840336134453845        1.2605042016806723E-002   2.1361592742370716E-002
  0.51680672268907624        1.2605042016806723E-002   2.1409351295066256E-002
  0.52521008403361402        1.2605042016806723E-002   2.1395385389438512E-002
  0.53361344537815181        1.2605042016806723E-002   2.1317584585576876E-002
  0.54201680672268959        1.2605042016806723E-002   2.1174622215811314E-002
  0.55042016806722738        1.2605042016806723E-002   2.0965442061781085E-002
  0.55882352941176516        1.2605042016806723E-002   2.0689370495394287E-002
  0.56722689075630295        1.2605042016806723E-002   2.0346198093791922E-002
  0.57563025210084073        1.2605042016806723E-002   1.9936216512345686E-002
  0.58403361344537852        1.2605042016806723E-002   1.9460248617236314E-002
  0.59243697478991630        1.2605042016806723E-002   1.8919673123054741E-002
  0.60084033613445409        1.2605042016806723E-002   1.8316441768593591E-002
  0.60924369747899187        1.2605042016806723E-002   1.7653089080463664E-002
  0.61764705882352966        1.2605042016806723E-002   1.6932734741248144E-002
  0.62605042016806745        1.2605042016806723E-002   1.6159078297957135E-002
  0.63445378151260523        1.2605042016806723E-002   1.5336385887932725E-002
  0.64285714285714302        1.2605042016806723E-002   1.4469468703684887E-002
  0.65126050420168080        1.2605042016806723E-002   1.3563653023729192E-002
  0.65966386554621859        1.2605042016806723E-002   1.2624741805454984E-002
  0.66806722689075637        1.2605042016806723E-002   1.1658968077287332E-002
  0.67647058823529416        1.2605042016806723E-002   1.0672940704881296E-002
  0.68487394957983194        1.2605042016806723E-002   9.6735835962918574E-003
  0.69327731092436973        1.2605042016806723E-002   8.6680701801652247E-003
  0.70168067226890751        1.2605042016806723E-002   7.6637563281173908E-003
  0.71008403361344530        1.2605042016806723E-002   6.6681175017290796E-003
  0.71848739495798308        1.2605042016806723E-002   5.6887016447515655E-003
  0.72689075630252087        1.2605042016806723E-002   4.7331235684280031E-003
  0.73529411764705865        1.2605042016806723E-002   3.8091666035882129E-003
  0.74369747899159644        1.2605042016806723E-002   2.9251897318991974E-003
  0.75210084033613422        1.2605042016806723E-002   2.0915827462649537E-003
  0.76050420168067201        1.2605042016806723E-002   1.3270114535472875E-003
  0.76890756302520979        1.2605042016806723E-002   6.9836323018358955E-004
  0.77731092436974758        1.2605042016806723E-002   5.5846713560443186E-004
  0.78571428571428537        1.2605042016806723E-002   9.9238520545751226E-004
  0.79411764705882315        1.2605042016806723E-002   1.5038053368017594E-003
  0.80252100840336094        1.2605042016806723E-002   1.9775536747946867E-003
  0.81092436974789872        1.2605042016806723E-002   2.3923142832354481E-003
  0.81932773109243651        1.2605042016806723E-002   2.7416514853511832E-003
  0.82773109243697429        1.2605042016806723E-002   3.0233702272889464E-003
  0.83613445378151208        1.2605042016806723E-002   3.2371894163367087E-003
  0.84453781512604986        1.2605042016806723E-002   3.3840257299109261E-003
  0.85294117647058765        1.2605042016806723E-002   3.4657078276960182E-003
  0.86134453781512543        1.2605042016806723E-002   3.4848277740247807E-003
  0.86974789915966322        1.2605042016806723E-002   3.4446950241885941E-003
  0.87815126050420100        1.2605042016806723E-002   3.3491508504294811E-003
  0.88655462184873879        1.2605042016806723E-002   3.2026211186757213E-003
  0.89495798319327657        1.2605042016806723E-002   3.0101106593180514E-003
  0.90336134453781436        1.2605042016806723E-002   2.7772352880449784E-003
  0.91176470588235214        1.2605042016806723E-002   2.5102962990793056E-003
  0.92016806722688993        1.2605042016806723E-002   2.2163803036560010E-003
  0.92857142857142771        1.2605042016806723E-002   1.9034830132546590E-003
  0.93697478991596550        1.2605042016806723E-002   1.5806460739240490E-003
  0.94537815126050329        1.2605042016806723E-002   1.2580756175763340E-003
  0.95378151260504107        1.2605042016806723E-002   9.4718401445072111E-004
  0.96218487394957886        1.2605042016806723E-002   6.6043396844519392E-004
  0.97058823529411664        1.2605042016806723E-002   4.1062384552777810E-004
  0.97899159663865443        1.2605042016806723E-002   2.0910702530594610E-004
  0.98739495798319221        1.2605042016806723E-002   6.4842052992667803E-005
  0.99579831932773000        1.2605042016806723E-002   1.2884677175818086E-005
   1.0000000000000000        1.2605042016806723E-002   0.0000000000000000     
   0.0000000000000000        2.1008403361344540E-002   0.0000000000000000     
   4.2016806722689074E-003   2.1008403361344540E-002   4.7341064810368640E-005
   1.2605042016806723E-002   2.1008403361344540E-002   1.3470258245959284E-004
   2.1008403361344540E-002   2.1008403361344540E-002   2.2326965078088337E-004
   2.9411764705882353E-002   2.1008403361344540E-002   3.0915108547350406E-004
   3.7815126050420166E-002   2.1008403361344540E-002   3.8378117426593277E-004
   4.6218487394957979E-002   2.1008403361344540E-002   4.3901576214127832E-004
   5.4621848739495792E-002   2.1008403361344540E-002   4.6738131984728473E-004
   6.3025210084033612E-002   2.1008403361344540E-002   4.6338656316521253E-004
   7.1428571428571425E-002   2.1008403361344540E-002   4.2459815893008870E-004
   7.9831932773109238E-002   2.1008403361344540E-002   3.5373238909868680E-004
   8.8235294117647051E-002   2.1008403361344540E-002   2.6797670086128341E-004
   9.6638655462184864E-002   2.1008403361344540E-002   2.3540459879046530E-004
  0.10504201680672268        2.1008403361344540E-002   3.5023225830409547E-004
  0.11344537815126049        2.1008403361344540E-002   5.7498199888595118E-004