 title=Umag
 variables=x,y,Umag
 zone i=         171 ,j=         171
 
   0.0000000000000000        0.0000000000000000        0.0000000000000000     
   2.9585798816568047E-003   0.0000000000000000        0.0000000000000000     
   8.8757396449704144E-003   0.0000000000000000        0.0000000000000000     
   1.4792899408284023E-002   0.0000000000000000        0.0000000000000000     
   2.0710059171597631E-002   0.0000000000000000        0.0000000000000000     
   2.6627218934911240E-002   0.0000000000000000        0.0000000000000000     
   3.2544378698224852E-002   0.0000000000000000        0.0000000000000000     
   3.8461538461538464E-002   0.0000000000000000        0.0000000000000000     
   4.4378698224852076E-002   0.0000000000000000        0.0000000000000000     
   5.0295857988165688E-002   0.0000000000000000        0.0000000000000000     
   5.6213017751479299E-002   0.0000000000000000        0.0000000000000000     
   6.2130177514792911E-002   0.0000000000000000        0.0000000000000000     
   6.8047337278106523E-002   0.0000000000000000        0.0000000000000000     
   7.3964497041420135E-002   0.0000000000000000        0.0000000000000000     
   7.9881656804733747E-002   0.0000000000000000        0.0000000000000000     
   8.5798816568047359E-002   0.0000000000000000        0.0000000000000000     
   9.1715976331360971E-002   0.0000000000000000        0.0000000000000000     
   9.7633136094674583E-002   0.0000000000000000        0.0000000000000000     
  0.10355029585798819        0.0000000000000000        0.0000000000000000     
  0.10946745562130181        0.0000000000000000        0.0000000000000000     
  0.11538461538461542        0.0000000000000000        0.0000000000000000     
  0.12130177514792903        0.0000000000000000        0.0000000000000000     
  0.12721893491124264        0.0000000000000000        0.0000000000000000     
  0.13313609467455625        0.0000000000000000        0.0000000000000000     
  0.13905325443786987        0.0000000000000000        0.0000000000000000     
  0.14497041420118348        0.0000000000000000        0.0000000000000000     
  0.15088757396449709        0.0000000000000000        0.0000000000000000     
  0.15680473372781070        0.0000000000000000        0.0000000000000000     
  0.16272189349112431        0.0000000000000000        0.0000000000000000     
  0.16863905325443793        0.0000000000000000        0.0000000000000000     
  0.17455621301775154        0.0000000000000000        0.0000000000000000     
  0.18047337278106515        0.0000000000000000        0.0000000000000000     
  0.18639053254437876        0.0000000000000000        0.0000000000000000     
  0.19230769230769237        0.0000000000000000        0.0000000000000000     
  0.19822485207100599        0.0000000000000000        0.0000000000000000     
  0.20414201183431960        0.0000000000000000        0.0000000000000000     
  0.21005917159763321        0.0000000000000000        0.0000000000000000     
  0.21597633136094682        0.0000000000000000        0.0000000000000000     
  0.22189349112426043        0.0000000000000000        0.0000000000000000     
  0.22781065088757405        0.0000000000000000        0.0000000000000000     
  0.23372781065088766        0.0000000000000000        0.0000000000000000     
  0.23964497041420127        0.0000000000000000        0.0000000000000000     
  0.24556213017751488        0.0000000000000000        0.0000000000000000     
  0.25147928994082847        0.0000000000000000        0.0000000000000000     
  0.25739644970414205        0.0000000000000000        0.0000000000000000     
  0.26331360946745563        0.0000000000000000        0.0000000000000000     
  0.26923076923076922        0.0000000000000000        0.0000000000000000     
  0.27514792899408280        0.0000000000000000        0.0000000000000000     
  0.28106508875739639        0.0000000000000000        0.0000000000000000     
  0.28698224852070997        0.0000000000000000        0.0000000000000000     
  0.29289940828402355        0.0000000000000000        0.0000000000000000     
  0.29881656804733714        0.0000000000000000        0.0000000000000000     
  0.30473372781065072        0.0000000000000000        0.0000000000000000     
  0.31065088757396431        0.0000000000000000        0.0000000000000000     
  0.31656804733727789        0.0000000000000000        0.0000000000000000     
  0.32248520710059148        0.0000000000000000        0.0000000000000000     
  0.32840236686390506        0.0000000000000000        0.0000000000000000     
  0.33431952662721864        0.0000000000000000        0.0000000000000000     
  0.34023668639053223        0.0000000000000000        0.0000000000000000     
  0.34615384615384581        0.0000000000000000        0.0000000000000000     
  0.35207100591715940        0.0000000000000000        0.0000000000000000     
  0.35798816568047298        0.0000000000000000        0.0000000000000000     
  0.36390532544378656        0.0000000000000000        0.0000000000000000     
  0.36982248520710015        0.0000000000000000        0.0000000000000000     
  0.37573964497041373        0.0000000000000000        0.0000000000000000     
  0.38165680473372732        0.0000000000000000        0.0000000000000000     
  0.38757396449704090        0.0000000000000000        0.0000000000000000     
  0.39349112426035449        0.0000000000000000        0.0000000000000000     
  0.39940828402366807        0.0000000000000000        0.0000000000000000     
  0.40532544378698165        0.0000000000000000        0.0000000000000000     
  0.41124260355029524        0.0000000000000000        0.0000000000000000     
  0.41715976331360882        0.0000000000000000        0.0000000000000000     
  0.42307692307692241        0.0000000000000000        0.0000000000000000     
  0.42899408284023599        0.0000000000000000        0.0000000000000000     
  0.43491124260354957        0.0000000000000000        0.0000000000000000     
  0.44082840236686316        0.0000000000000000        0.0000000000000000     
  0.44674556213017674        0.0000000000000000        0.0000000000000000     
  0.45266272189349033        0.0000000000000000        0.0000000000000000     
  0.45857988165680391        0.0000000000000000        0.0000000000000000     
  0.46449704142011750        0.0000000000000000        0.0000000000000000     
  0.47041420118343108        0.0000000000000000        0.0000000000000000     
  0.47633136094674466        0.0000000000000000        0.0000000000000000     
  0.48224852071005825        0.0000000000000000        0.0000000000000000     
  0.48816568047337183        0.0000000000000000        0.0000000000000000     
  0.49408284023668542        0.0000000000000000        0.0000000000000000     
  0.49999999999999900        0.0000000000000000        0.0000000000000000     
  0.50591715976331264        0.0000000000000000        0.0000000000000000     
  0.51183431952662628        0.0000000000000000        0.0000000000000000     
  0.51775147928993992        0.0000000000000000        0.0000000000000000     
  0.52366863905325356        0.0000000000000000        0.0000000000000000     
  0.52958579881656720        0.0000000000000000        0.0000000000000000     
  0.53550295857988084        0.0000000000000000        0.0000000000000000     
  0.54142011834319448        0.0000000000000000        0.0000000000000000     
  0.54733727810650812        0.0000000000000000        0.0000000000000000     
  0.55325443786982176        0.0000000000000000        0.0000000000000000     
  0.55917159763313540        0.0000000000000000        0.0000000000000000     
  0.56508875739644904        0.0000000000000000        0.0000000000000000     
  0.57100591715976268        0.0000000000000000        0.0000000000000000     
  0.57692307692307632        0.0000000000000000        0.0000000000000000     
  0.58284023668638996        0.0000000000000000        0.0000000000000000     
  0.58875739644970360        0.0000000000000000        0.0000000000000000     
  0.59467455621301724        0.0000000000000000        0.0000000000000000     
  0.60059171597633088        0.0000000000000000        0.0000000000000000     
  0.60650887573964452        0.0000000000000000        0.0000000000000000     
  0.61242603550295815        0.0000000000000000        0.0000000000000000     
  0.61834319526627179        0.0000000000000000        0.0000000000000000     
  0.62426035502958543        0.0000000000000000        0.0000000000000000     
  0.63017751479289907        0.0000000000000000        0.0000000000000000     
  0.63609467455621271        0.0000000000000000        0.0000000000000000     
  0.64201183431952635        0.0000000000000000        0.0000000000000000     
  0.64792899408283999        0.0000000000000000        0.0000000000000000     
  0.65384615384615363        0.0000000000000000        0.0000000000000000     
  0.65976331360946727        0.0000000000000000        0.0000000000000000     
  0.66568047337278091        0.0000000000000000        0.0000000000000000     
  0.67159763313609455        0.0000000000000000        0.0000000000000000     
  0.67751479289940819        0.0000000000000000        0.0000000000000000     
  0.68343195266272183        0.0000000000000000        0.0000000000000000     
  0.68934911242603547        0.0000000000000000        0.0000000000000000     
  0.69526627218934911        0.0000000000000000        0.0000000000000000     
  0.70118343195266275        0.0000000000000000        0.0000000000000000     
  0.70710059171597639        0.0000000000000000        0.0000000000000000     
  0.71301775147929003        0.0000000000000000        0.0000000000000000     
  0.71893491124260367        0.0000000000000000        0.0000000000000000     
  0.72485207100591731        0.0000000000000000        0.0000000000000000     
  0.73076923076923095        0.0000000000000000        0.0000000000000000     
  0.73668639053254459        0.0000000000000000        0.0000000000000000     
  0.74260355029585823        0.0000000000000000        0.0000000000000000     
  0.74852071005917187        0.0000000000000000        0.0000000000000000     
  0.75443786982248551        0.0000000000000000        0.0000000000000000     
  0.76035502958579915        0.0000000000000000        0.0000000000000000     
  0.76627218934911279        0.0000000000000000        0.0000000000000000     
  0.77218934911242643        0.0000000000000000        0.0000000000000000     
  0.77810650887574007        0.0000000000000000        0.0000000000000000     
  0.78402366863905371        0.0000000000000000        0.0000000000000000     
  0.78994082840236735        0.0000000000000000        0.0000000000000000     
  0.79585798816568099        0.0000000000000000        0.0000000000000000     
  0.80177514792899462        0.0000000000000000        0.0000000000000000     
  0.80769230769230826        0.0000000000000000        0.0000000000000000     
  0.81360946745562190        0.0000000000000000        0.0000000000000000     
  0.81952662721893554        0.0000000000000000        0.0000000000000000     
  0.82544378698224918        0.0000000000000000        0.0000000000000000     
  0.83136094674556282        0.0000000000000000        0.0000000000000000     
  0.83727810650887646        0.0000000000000000        0.0000000000000000     
  0.84319526627219010        0.0000000000000000        0.0000000000000000     
  0.84911242603550374        0.0000000000000000        0.0000000000000000     
  0.85502958579881738        0.0000000000000000        0.0000000000000000     
  0.86094674556213102        0.0000000000000000        0.0000000000000000     
  0.86686390532544466        0.0000000000000000        0.0000000000000000     
  0.87278106508875830        0.0000000000000000        0.0000000000000000     
  0.87869822485207194        0.0000000000000000        0.0000000000000000     
  0.88461538461538558        0.0000000000000000        0.0000000000000000     
  0.89053254437869922        0.0000000000000000        0.0000000000000000     
  0.89644970414201286        0.0000000000000000        0.0000000000000000     
  0.90236686390532650        0.0000000000000000        0.0000000000000000     
  0.90828402366864014        0.0000000000000000        0.0000000000000000     
  0.91420118343195378        0.0000000000000000        0.0000000000000000     
  0.92011834319526742        0.0000000000000000        0.0000000000000000     
  0.92603550295858106        0.0000000000000000        0.0000000000000000     
  0.93195266272189470        0.0000000000000000        0.0000000000000000     
  0.93786982248520834        0.0000000000000000        0.0000000000000000     
  0.94378698224852198        0.0000000000000000        0.0000000000000000     
  0.94970414201183562        0.0000000000000000        0.0000000000000000     
  0.95562130177514926        0.0000000000000000        0.0000000000000000     
  0.96153846153846290        0.0000000000000000        0.0000000000000000     
  0.96745562130177654        0.0000000000000000        0.0000000000000000     
  0.97337278106509018        0.0000000000000000        0.0000000000000000     
  0.97928994082840382        0.0000000000000000        0.0000000000000000     
  0.98520710059171746        0.0000000000000000        0.0000000000000000     
  0.99112426035503109        0.0000000000000000        0.0000000000000000     
  0.99704142011834473        0.0000000000000000        0.0000000000000000     
   1.0000000000000000        0.0000000000000000        0.0000000000000000     
   0.0000000000000000        2.9585798816568047E-003   0.0000000000000000     
   2.9585798816568047E-003   2.9585798816568047E-003   2.7879301838844611E-006
   8.8757396449704144E-003   2.9585798816568047E-003   2.8422765434671438E-006
   1.4792899408284023E-002   2.9585798816568047E-003   9.2392180714111985E-006
   2.0710059171597631E-002   2.9585798816568047E-003   2.4800809326467805E-005
   2.6627218934911240E-002   2.9585798816568047E-003   4.3110767074338211E-005
   3.2544378698224852E-002   2.9585798816568047E-003   6.2096565829018632E-005
   3.8461538461538464E-002   2.9585798816568047E-003   8.0264957927117582E-005
   4.4378698224852076E-002   2.9585798816568047E-003   9.6528671737707608E-005
   5.0295857988165688E-002   2.9585798816568047E-003   1.1013817050309330E-004
   5.6213017751479299E-002   2.9585798816568047E-003   1.2058981169551281E-004
   6.2130177514792911E-002   2.9585798816568047E-003   1.2755864607812974E-004
   6.8047337278106523E-002   2.9585798816568047E-003   1.3085251791458027E-004
   7.3964497041420135E-002   2.9585798816568047E-003   1.3037836973153687E-004
   7.9881656804733747E-002   2.9585798816568047E-003   1.2611703055888347E-004
   8.5798816568047359E-002   2.9585798816568047E-003   1.1810436270387866E-004
   9.1715976331360971E-002   2.9585798816568047E-003   1.0641814058497840E-004
   9.7633136094674583E-002   2.9585798816568047E-003   9.1171634791368381E-005
  0.10355029585798819        2.9585798816568047E-003   7.2521912627042045E-005
  0.10946745562130181        2.9585798816568047E-003   5.0736493371813459E-005
  0.11538461538461542        2.9585798816568047E-003   2.6721719925416432E-005
  0.12130177514792903        2.9585798816568047E-003   1.3331781899955737E-005
  0.12721893491124264        2.9585798816568047E-003   3.8710671576697228E-005
  0.13313609467455625        2.9585798816568047E-003   7.2382720312241791E-005
  0.13905325443786987        2.9585798816568047E-003   1.0949521038205852E-004
  0.14497041420118348        2.9585798816568047E-003   1.4953969505647713E-004
  0.15088757396449709        2.9585798816568047E-003   1.9234271222746160E-004
  0.15680473372781070        2.9585798816568047E-003   2.3780659546015446E-004
  0.16272189349112431        2.9585798816568047E-003   2.8586396940999674E-004
  0.16863905325443793        2.9585798816568047E-003   3.3646482608400141E-004
  0.17455621301775154        2.9585798816568047E-003   3.8957134397501694E-004
  0.18047337278106515        2.9585798816568047E-003   4.4515505837591459E-004
  0.18639053254437876        2.9585798816568047E-003   5.0319486599694277E-004
  0.19230769230769237        2.9585798816568047E-003   5.6367536426482970E-004
  0.19822485207100599        2.9585798816568047E-003   6.2658534591499243E-004
  0.20414201183431960        2.9585798816568047E-003   6.9191638333292594E-004
  0.21005917159763321        2.9585798816568047E-003   7.5966148064054572E-004
  0.21597633136094682        2.9585798816568047E-003   8.2981378852066249E-004
  0.22189349112426043        2.9585798816568047E-003   9.0236538299802601E-004
  0.22781065088757405        2.9585798816568047E-003   9.7730611106814150E-004
  0.23372781065088766        2.9585798816568047E-003   1.0546225058286291E-003
  0.23964497041420127        2.9585798816568047E-003   1.1342967727931120E-003
  0.24556213017751488        2.9585798816568047E-003   1.2163058479165917E-003
  0.25147928994082847        2.9585798816568047E-003   1.3006205267830681E-003
  0.25739644970414205        2.9585798816568047E-003   1.3872046635125877E-003
  0.26331360946745563        2.9585798816568047E-003   1.4760144372860306E-003
  0.26923076923076922        2.9585798816568047E-003   1.5669976839611632E-003
  0.27514792899408280        2.9585798816568047E-003   1.6600932900467645E-003
  0.28106508875739639        2.9585798816568047E-003   1.7552306462886864E-003
  0.28698224852070997        2.9585798816568047E-003   1.8523291582743463E-003
  0.29289940828402355        2.9585798816568047E-003   1.9512978117388242E-003
  0.29881656804733714        2.9585798816568047E-003   2.0520347906340533E-003
  0.30473372781065072        2.9585798816568047E-003   2.1544271464648181E-003
  0.31065088757396431        2.9585798816568047E-003   2.2583505178753599E-003
  0.31656804733727789        2.9585798816568047E-003   2.3636688999668209E-003
  0.32248520710059148        2.9585798816568047E-003   2.4702344633084038E-003
  0.32840236686390506        2.9585798816568047E-003   2.5778874230668355E-003
  0.33431952662721864        2.9585798816568047E-003   2.6864559590972746E-003
  0.34023668639053223        2.9585798816568047E-003   2.7957561882049372E-003
  0.34615384615384581        2.9585798816568047E-003   2.9055921900942006E-003
  0.35207100591715940        2.9585798816568047E-003   3.0157560887653701E-003
  0.35798816568047298        2.9585798816568047E-003   3.1260281912907600E-003
  0.36390532544378656        2.9585798816568047E-003   3.2361771860079948E-003
  0.36982248520710015        2.9585798816568047E-003   3.3459604022043894E-003
  0.37573964497041373        2.9585798816568047E-003   3.4551241333356957E-003
  0.38165680473372732        2.9585798816568047E-003   3.5634040257300869E-003
  0.38757396449704090        2.9585798816568047E-003   3.6705255345769556E-003
  0.39349112426035449        2.9585798816568047E-003   3.7762044487965420E-003
  0.39940828402366807        2.9585798816568047E-003   3.8801474861359466E-003
  0.40532544378698165        2.9585798816568047E-003   3.9820529595434905E-003
  0.41124260355029524        2.9585798816568047E-003   4.0816115155506106E-003
  0.41715976331360882        2.9585798816568047E-003   4.1785069450343288E-003
  0.42307692307692241        2.9585798816568047E-003   4.2724170663557678E-003
  0.42899408284023599        2.9585798816568047E-003   4.3630146804698507E-003
  0.43491124260354957        2.9585798816568047E-003   4.4499685971772012E-003
  0.44082840236686316        2.9585798816568047E-003   4.5329447312210686E-003
  0.44674556213017674        2.9585798816568047E-003   4.6116072663639129E-003
  0.45266272189349033        2.9585798816568047E-003   4.6856198848059987E-003
  0.45857988165680391        2.9585798816568047E-003   4.7546470584916081E-003
  0.46449704142011750        2.9585798816568047E-003   4.8183553983110914E-003
  0.47041420118343108        2.9585798816568047E-003   4.8764150536485000E-003
  0.47633136094674466        2.9585798816568047E-003   4.9285011425514776E-003
  0.48224852071005825        2.9585798816568047E-003   4.9742952227644927E-003
  0.48816568047337183        2.9585798816568047E-003   5.0134870121757279E-003
  0.49408284023668542        2.9585798816568047E-003   5.0457763330684635E-003
  0.49999999999999900        2.9585798816568047E-003   5.0708726141647214E-003
  0.50591715976331264        2.9585798816568047E-003   5.0884928393721976E-003
  0.51183431952662628        2.9585798816568047E-003   5.0984072130134334E-003
  0.51775147928993992        2.9585798816568047E-003   5.1003919202055811E-003
  0.52366863905325356        2.9585798816568047E-003   5.0942807090807165E-003
  0.52958579881656720        2.9585798816568047E-003   5.0799398683886825E-003
  0.53550295857988084        2.9585798816568047E-003   5.0572423968089824E-003
  0.54142011834319448        2.9585798816568047E-003   5.0260778481817101E-003
  0.54733727810650812        2.9585798816568047E-003   4.9863604297524910E-003
  0.55325443786982176        2.9585798816568047E-003   4.9380329388274613E-003
  0.55917159763313540        2.9585798816568047E-003   4.8810696650484443E-003
  0.56508875739644904        2.9585798816568047E-003   4.8154787453267194E-003
  0.57100591715976268        2.9585798816568047E-003   4.7413039973344109E-003
  0.57692307692307632        2.9585798816568047E-003   4.6586263558595683E-003
  0.58284023668638996        2.9585798816568047E-003   4.5675649970367029E-003
  0.58875739644970360        2.9585798816568047E-003   4.4682781832329019E-003
  0.59467455621301724        2.9585798816568047E-003   4.3609638379765673E-003
  0.60059171597633088        2.9585798816568047E-003   4.2458598496632159E-003
  0.60650887573964452        2.9585798816568047E-003   4.1232440970849354E-003
  0.61242603550295815        2.9585798816568047E-003   3.9934341873330134E-003
  0.61834319526627179        2.9585798816568047E-003   3.8567868962168343E-003
  0.62426035502958543        2.9585798816568047E-003   3.7136973022740567E-003
  0.63017751479289907        2.9585798816568047E-003   3.5645976072794204E-003
  0.63609467455621271        2.9585798816568047E-003   3.4099556386860239E-003
  0.64201183431952635        2.9585798816568047E-003   3.2502730325213490E-003
  0.64792899408283999        2.9585798816568047E-003   3.0860830988568592E-003
  0.65384615384615363        2.9585798816568047E-003   2.9179483760463343E-003
  0.65976331360946727        2.9585798816568047E-003   2.7464578845146225E-003
  0.66568047337278091        2.9585798816568047E-003   2.5722240960600151E-003
  0.67159763313609455        2.9585798816568047E-003   2.3958796406095269E-003
  0.67751479289940819        2.9585798816568047E-003   2.2180737795529509E-003
  0.68343195266272183        2.9585798816568047E-003   2.0394686839931685E-003
  0.68934911242603547        2.9585798816568047E-003   1.8607355691827449E-003
  0.69526627218934911        2.9585798816568047E-003   1.6825507565630107E-003
  0.70118343195266275        2.9585798816568047E-003   1.5055917698428372E-003
  0.70710059171597639        2.9585798816568047E-003   1.3305336389670673E-003
  0.71301775147929003        2.9585798816568047E-003   1.1580457285671720E-003
  0.71893491124260367        2.9585798816568047E-003   9.8878974057912158E-004
  0.72485207100591731        2.9585798816568047E-003   8.2342040631191743E-004
  0.73076923076923095        2.9585798816568047E-003   6.6259293373627302E-004
  0.73668639053254459        2.9585798816568047E-003   5.0699015799146499E-004
  0.74260355029585823        2.9585798816568047E-003   3.5742195016409727E-004
  0.74852071005917187        2.9585798816568047E-003   2.1530896653018520E-004
  0.75443786982248551        2.9585798816568047E-003   8.7505858811624026E-005
  0.76035502958579915        2.9585798816568047E-003   7.8439127366797148E-005
  0.76627218934911279        2.9585798816568047E-003   1.9017982278349781E-004
  0.77218934911242643        2.9585798816568047E-003   3.0326020145844668E-004
  0.77810650887574007        2.9585798816568047E-003   4.0973684684177748E-004
  0.78402366863905371        2.9585798816568047E-003   5.0836740974298880E-004
  0.78994082840236735        2.9585798816568047E-003   5.9867674242114932E-004
  0.79585798816568099        2.9585798816568047E-003   6.8040652359349933E-004
  0.80177514792899462        2.9585798816568047E-003   7.5340263949787601E-004
  0.80769230769230826        2.9585798816568047E-003   8.1758187982465817E-004
  0.81360946745562190        2.9585798816568047E-003   8.7291925460431311E-004
  0.81952662721893554        2.9585798816568047E-003   9.1944183187911129E-004
  0.82544378698224918        2.9585798816568047E-003   9.5722491612030311E-004
  0.83136094674556282        2.9585798816568047E-003   9.8638911734231583E-004
  0.83727810650887646        2.9585798816568047E-003   1.0070977615797472E-003
  0.84319526627219010        2.9585798816568047E-003   1.0195544505163111E-003
  0.84911242603550374        2.9585798816568047E-003   1.0240005790560858E-003
  0.85502958579881738        2.9585798816568047E-003   1.0207121632635856E-003
  0.86094674556213102        2.9585798816568047E-003   1.0099963293831251E-003
  0.86686390532544466        2.9585798816568047E-003   9.9219339559123917E-004
  0.87278106508875830        2.9585798816568047E-003   9.6766986198671431E-004
  0.87869822485207194        2.9585798816568047E-003   9.3681735177637056E-004
  0.88461538461538558        2.9585798816568047E-003   9.0005637137318436E-004
  0.89053254437869922        2.9585798816568047E-003   8.5783642178446169E-004
  0.89644970414201286        2.9585798816568047E-003   8.1063920813423548E-004
  0.90236686390532650        2.9585798816568047E-003   7.5898217751574207E-004
  0.90828402366864014        2.9585798816568047E-003   7.0342317873018604E-004
  0.91420118343195378        2.9585798816568047E-003   6.4456655177336697E-004
  0.92011834319526742        2.9585798816568047E-003   5.8307082265087254E-004
  0.92603550295858106        2.9585798816568047E-003   5.1965822566943040E-004
  0.93195266272189470        2.9585798816568047E-003   4.5512628369904487E-004
  0.93786982248520834        2.9585798816568047E-003   3.9036164035404289E-004
  0.94378698224852198        2.9585798816568047E-003   3.2635623543426706E-004
  0.94970414201183562        2.9585798816568047E-003   2.6422540185299021E-004
  0.95562130177514926        2.9585798816568047E-003   2.0522548071046437E-004
  0.96153846153846290        2.9585798816568047E-003   1.5076649538697280E-004
  0.96745562130177654        2.9585798816568047E-003   1.0242158875833690E-004
  0.97337278106509018        2.9585798816568047E-003   6.1913469967124314E-005
  0.97928994082840382        2.9585798816568047E-003   3.0847500937221897E-005
  0.98520710059171746        2.9585798816568047E-003   1.0325969381947823E-005
  0.99112426035503109        2.9585798816568047E-003   5.8526754005362646E-006
  0.99704142011834473        2.9585798816568047E-003   3.6716950115200365E-006
   1.0000000000000000        2.9585798816568047E-003   0.0000000000000000     
   0.0000000000000000        8.8757396449704144E-003   0.0000000000000000     
   2.9585798816568047E-003   8.8757396449704144E-003   9.6103214927252090E-006
   8.8757396449704144E-003   8.8757396449704144E-003   2.7211828651952351E-005
   1.4792899408284023E-002   8.8757396449704144E-003   5.0706006356634158E-005
   2.0710059171597631E-002   8.8757396449704144E-003   8.2740294785718985E-005
   2.6627218934911240E-002   8.8757396449704144E-003   1.2029114867187336E-004
   3.2544378698224852E-002   8.8757396449704144E-003   1.5963618390629273E-004
   3.8461538461538464E-002   8.8757396449704144E-003   1.9734868620722656E-004
   4.4378698224852076E-002   8.8757396449704144E-003   2.3065965985814851E-004
   5.0295857988165688E-002   8.8757396449704144E-003   2.5750148615263398E-004
   5.6213017751479299E-002   8.8757396449704144E-003   2.7638465279371314E-004
   6.2130177514792911E-002   8.8757396449704144E-003   2.8627602158254464E-004
   6.8047337278106523E-002   8.8757396449704144E-003   2.8650186927758480E-004
   7.3964497041420135E-002   8.8757396449704144E-003   2.7667048722316542E-004
   7.9881656804733747E-002   8.8757396449704144E-003   2.5661343835413553E-004
   8.5798816568047359E-002   8.8757396449704144E-003   2.2634705050896936E-004
   9.1715976331360971E-002   8.8757396449704144E-003   1.8607314984062906E-004
   9.7633136094674583E-002   8.8757396449704144E-003   1.3630718276743824E-004
  0.10355029585798819        8.8757396449704144E-003   7.8855206829785208E-005
  0.10946745562130181        8.8757396449704144E-003   3.3757965536381359E-005
  0.11538461538461542        8.8757396449704144E-003   8.5796308677671602E-005
  0.12130177514792903        8.8757396449704144E-003   1.7104093918435712E-004
  0.12721893491124264        8.8757396449704144E-003   2.6739789689148014E-004
  0.13313609467455625        8.8757396449704144E-003   3.7289514044159161E-004
  0.13905325443786987        8.8757396449704144E-003   4.8692488384848346E-004
  0.14497041420118348        8.8757396449704144E-003   6.0914483131525735E-004
  0.15088757396449709        8.8757396449704144E-003   7.3930759684017724E-004
  0.15680473372781070        8.8757396449704144E-003   8.7721702157952507E-004
  0.16272189349112431        8.8757396449704144E-003   1.0227127374813948E-003
  0.16863905325443793        8.8757396449704144E-003   1.1756627932133785E-003
  0.17455621301775154        8.8757396449704144E-003   1.3359588860956050E-003
  0.18047337278106515        8.8757396449704144E-003   1.5035124645054541E-003
  0.18639053254437876        8.8757396449704144E-003   1.6782511049151889E-003
  0.19230769230769237        8.8757396449704144E-003   1.8601149646122568E-003
  0.19822485207100599        8.8757396449704144E-003   2.0490532602867716E-003
  0.20414201183431960        8.8757396449704144E-003   2.2450207796289152E-003