 title=V
 variables=x,y,V
 zone i=         121 ,j=         121
 
   0.0000000000000000        0.0000000000000000        0.0000000000000000     
   4.2016806722689074E-003   0.0000000000000000        0.0000000000000000     
   1.2605042016806723E-002   0.0000000000000000        0.0000000000000000     
   2.1008403361344540E-002   0.0000000000000000        0.0000000000000000     
   2.9411764705882353E-002   0.0000000000000000        0.0000000000000000     
   3.7815126050420166E-002   0.0000000000000000        0.0000000000000000     
   4.6218487394957979E-002   0.0000000000000000        0.0000000000000000     
   5.4621848739495792E-002   0.0000000000000000        0.0000000000000000     
   6.3025210084033612E-002   0.0000000000000000        0.0000000000000000     
   7.1428571428571425E-002   0.0000000000000000        0.0000000000000000     
   7.9831932773109238E-002   0.0000000000000000        0.0000000000000000     
   8.8235294117647051E-002   0.0000000000000000        0.0000000000000000     
   9.6638655462184864E-002   0.0000000000000000        0.0000000000000000     
  0.10504201680672268        0.0000000000000000        0.0000000000000000     
  0.11344537815126049        0.0000000000000000        0.0000000000000000     
  0.12184873949579830        0.0000000000000000        0.0000000000000000     
  0.13025210084033612        0.0000000000000000        0.0000000000000000     
  0.13865546218487393        0.0000000000000000        0.0000000000000000     
  0.14705882352941174        0.0000000000000000        0.0000000000000000     
  0.15546218487394955        0.0000000000000000        0.0000000000000000     
  0.16386554621848737        0.0000000000000000        0.0000000000000000     
  0.17226890756302518        0.0000000000000000        0.0000000000000000     
  0.18067226890756299        0.0000000000000000        0.0000000000000000     
  0.18907563025210081        0.0000000000000000        0.0000000000000000     
  0.19747899159663862        0.0000000000000000        0.0000000000000000     
  0.20588235294117643        0.0000000000000000        0.0000000000000000     
  0.21428571428571425        0.0000000000000000        0.0000000000000000     
  0.22268907563025206        0.0000000000000000        0.0000000000000000     
  0.23109243697478987        0.0000000000000000        0.0000000000000000     
  0.23949579831932769        0.0000000000000000        0.0000000000000000     
  0.24789915966386550        0.0000000000000000        0.0000000000000000     
  0.25630252100840334        0.0000000000000000        0.0000000000000000     
  0.26470588235294118        0.0000000000000000        0.0000000000000000     
  0.27310924369747902        0.0000000000000000        0.0000000000000000     
  0.28151260504201686        0.0000000000000000        0.0000000000000000     
  0.28991596638655470        0.0000000000000000        0.0000000000000000     
  0.29831932773109254        0.0000000000000000        0.0000000000000000     
  0.30672268907563038        0.0000000000000000        0.0000000000000000     
  0.31512605042016822        0.0000000000000000        0.0000000000000000     
  0.32352941176470607        0.0000000000000000        0.0000000000000000     
  0.33193277310924391        0.0000000000000000        0.0000000000000000     
  0.34033613445378175        0.0000000000000000        0.0000000000000000     
  0.34873949579831959        0.0000000000000000        0.0000000000000000     
  0.35714285714285743        0.0000000000000000        0.0000000000000000     
  0.36554621848739527        0.0000000000000000        0.0000000000000000     
  0.37394957983193311        0.0000000000000000        0.0000000000000000     
  0.38235294117647095        0.0000000000000000        0.0000000000000000     
  0.39075630252100879        0.0000000000000000        0.0000000000000000     
  0.39915966386554663        0.0000000000000000        0.0000000000000000     
  0.40756302521008447        0.0000000000000000        0.0000000000000000     
  0.41596638655462231        0.0000000000000000        0.0000000000000000     
  0.42436974789916015        0.0000000000000000        0.0000000000000000     
  0.43277310924369800        0.0000000000000000        0.0000000000000000     
  0.44117647058823584        0.0000000000000000        0.0000000000000000     
  0.44957983193277368        0.0000000000000000        0.0000000000000000     
  0.45798319327731152        0.0000000000000000        0.0000000000000000     
  0.46638655462184936        0.0000000000000000        0.0000000000000000     
  0.47478991596638720        0.0000000000000000        0.0000000000000000     
  0.48319327731092504        0.0000000000000000        0.0000000000000000     
  0.49159663865546288        0.0000000000000000        0.0000000000000000     
  0.50000000000000067        0.0000000000000000        0.0000000000000000     
  0.50840336134453845        0.0000000000000000        0.0000000000000000     
  0.51680672268907624        0.0000000000000000        0.0000000000000000     
  0.52521008403361402        0.0000000000000000        0.0000000000000000     
  0.53361344537815181        0.0000000000000000        0.0000000000000000     
  0.54201680672268959        0.0000000000000000        0.0000000000000000     
  0.55042016806722738        0.0000000000000000        0.0000000000000000     
  0.55882352941176516        0.0000000000000000        0.0000000000000000     
  0.56722689075630295        0.0000000000000000        0.0000000000000000     
  0.57563025210084073        0.0000000000000000        0.0000000000000000     
  0.58403361344537852        0.0000000000000000        0.0000000000000000     
  0.59243697478991630        0.0000000000000000        0.0000000000000000     
  0.60084033613445409        0.0000000000000000        0.0000000000000000     
  0.60924369747899187        0.0000000000000000        0.0000000000000000     
  0.61764705882352966        0.0000000000000000        0.0000000000000000     
  0.62605042016806745        0.0000000000000000        0.0000000000000000     
  0.63445378151260523        0.0000000000000000        0.0000000000000000     
  0.64285714285714302        0.0000000000000000        0.0000000000000000     
  0.65126050420168080        0.0000000000000000        0.0000000000000000     
  0.65966386554621859        0.0000000000000000        0.0000000000000000     
  0.66806722689075637        0.0000000000000000        0.0000000000000000     
  0.67647058823529416        0.0000000000000000        0.0000000000000000     
  0.68487394957983194        0.0000000000000000        0.0000000000000000     
  0.69327731092436973        0.0000000000000000        0.0000000000000000     
  0.70168067226890751        0.0000000000000000        0.0000000000000000     
  0.71008403361344530        0.0000000000000000        0.0000000000000000     
  0.71848739495798308        0.0000000000000000        0.0000000000000000     
  0.72689075630252087        0.0000000000000000        0.0000000000000000     
  0.73529411764705865        0.0000000000000000        0.0000000000000000     
  0.74369747899159644        0.0000000000000000        0.0000000000000000     
  0.75210084033613422        0.0000000000000000        0.0000000000000000     
  0.76050420168067201        0.0000000000000000        0.0000000000000000     
  0.76890756302520979        0.0000000000000000        0.0000000000000000     
  0.77731092436974758        0.0000000000000000        0.0000000000000000     
  0.78571428571428537        0.0000000000000000        0.0000000000000000     
  0.79411764705882315        0.0000000000000000        0.0000000000000000     
  0.80252100840336094        0.0000000000000000        0.0000000000000000     
  0.81092436974789872        0.0000000000000000        0.0000000000000000     
  0.81932773109243651        0.0000000000000000        0.0000000000000000     
  0.82773109243697429        0.0000000000000000        0.0000000000000000     
  0.83613445378151208        0.0000000000000000        0.0000000000000000     
  0.84453781512604986        0.0000000000000000        0.0000000000000000     
  0.85294117647058765        0.0000000000000000        0.0000000000000000     
  0.86134453781512543        0.0000000000000000        0.0000000000000000     
  0.86974789915966322        0.0000000000000000        0.0000000000000000     
  0.87815126050420100        0.0000000000000000        0.0000000000000000     
  0.88655462184873879        0.0000000000000000        0.0000000000000000     
  0.89495798319327657        0.0000000000000000        0.0000000000000000     
  0.90336134453781436        0.0000000000000000        0.0000000000000000     
  0.91176470588235214        0.0000000000000000        0.0000000000000000     
  0.92016806722688993        0.0000000000000000        0.0000000000000000     
  0.92857142857142771        0.0000000000000000        0.0000000000000000     
  0.93697478991596550        0.0000000000000000        0.0000000000000000     
  0.94537815126050329        0.0000000000000000        0.0000000000000000     
  0.95378151260504107        0.0000000000000000        0.0000000000000000     
  0.96218487394957886        0.0000000000000000        0.0000000000000000     
  0.97058823529411664        0.0000000000000000        0.0000000000000000     
  0.97899159663865443        0.0000000000000000        0.0000000000000000     
  0.98739495798319221        0.0000000000000000        0.0000000000000000     
  0.99579831932773000        0.0000000000000000        0.0000000000000000     
   1.0000000000000000        0.0000000000000000        0.0000000000000000     
   0.0000000000000000        4.2016806722689074E-003   0.0000000000000000     
   4.2016806722689074E-003   4.2016806722689074E-003  -2.6132589009553024E-006
   1.2605042016806723E-002   4.2016806722689074E-003  -1.1012284146296780E-005
   2.1008403361344540E-002   4.2016806722689074E-003  -1.6184259597787920E-005
   2.9411764705882353E-002   4.2016806722689074E-003  -1.7711267098535177E-005
   3.7815126050420166E-002   4.2016806722689074E-003  -1.6643629990398583E-005
   4.6218487394957979E-002   4.2016806722689074E-003  -1.3900117731505121E-005
   5.4621848739495792E-002   4.2016806722689074E-003  -1.0146338305993724E-005
   6.3025210084033612E-002   4.2016806722689074E-003  -5.8473549579301194E-006
   7.1428571428571425E-002   4.2016806722689074E-003  -1.3129428852338467E-006
   7.9831932773109238E-002   4.2016806722689074E-003   3.2570067017759503E-006
   8.8235294117647051E-002   4.2016806722689074E-003   7.7380050851377563E-006
   9.6638655462184864E-002   4.2016806722689074E-003   1.2056947131937104E-005
  0.10504201680672268        4.2016806722689074E-003   1.6177046617903329E-005
  0.11344537815126049        4.2016806722689074E-003   2.0085893073759627E-005
  0.12184873949579830        4.2016806722689074E-003   2.3787224174122697E-005
  0.13025210084033612        4.2016806722689074E-003   2.7296087297775289E-005
  0.13865546218487393        4.2016806722689074E-003   3.0634578468677959E-005
  0.14705882352941174        4.2016806722689074E-003   3.3828687527542143E-005
  0.15546218487394955        4.2016806722689074E-003   3.6904876508166799E-005
  0.16386554621848737        4.2016806722689074E-003   3.9888330460182285E-005
  0.17226890756302518        4.2016806722689074E-003   4.2801813918734933E-005
  0.18067226890756299        4.2016806722689074E-003   4.5664830005779589E-005
  0.18907563025210081        4.2016806722689074E-003   4.8493070547014639E-005
  0.19747899159663862        4.2016806722689074E-003   5.1298120312186330E-005
  0.20588235294117643        4.2016806722689074E-003   5.4087361733089296E-005
  0.21428571428571425        4.2016806722689074E-003   5.6864030401521947E-005
  0.22268907563025206        4.2016806722689074E-003   5.9627379082708377E-005
  0.23109243697478987        4.2016806722689074E-003   6.2372915193625113E-005
  0.23949579831932769        4.2016806722689074E-003   6.5092683487329050E-005
  0.24789915966386550        4.2016806722689074E-003   6.7775571921221842E-005
  0.25630252100840334        4.2016806722689074E-003   7.0407624303982458E-005
  0.26470588235294118        4.2016806722689074E-003   7.2972348264489437E-005
  0.27310924369747902        4.2016806722689074E-003   7.5451011315797942E-005
  0.28151260504201686        4.2016806722689074E-003   7.7822921305870991E-005
  0.28991596638655470        4.2016806722689074E-003   8.0065690347713524E-005
  0.29831932773109254        4.2016806722689074E-003   8.2155483420027020E-005
  0.30672268907563038        4.2016806722689074E-003   8.4067254317669442E-005
  0.31512605042016822        4.2016806722689074E-003   8.5774972516757740E-005
  0.32352941176470607        4.2016806722689074E-003   8.7251844940995258E-005
  0.33193277310924391        4.2016806722689074E-003   8.8470536615858138E-005
  0.34033613445378175        4.2016806722689074E-003   8.9403393898755611E-005
  0.34873949579831959        4.2016806722689074E-003   9.0022673432319959E-005
  0.35714285714285743        4.2016806722689074E-003   9.0300779292005424E-005
  0.36554621848739527        4.2016806722689074E-003   9.0210510027064126E-005
  0.37394957983193311        4.2016806722689074E-003   8.9725316492117628E-005
  0.38235294117647095        4.2016806722689074E-003   8.8819570567106248E-005
  0.39075630252100879        4.2016806722689074E-003   8.7468844089265047E-005
  0.39915966386554663        4.2016806722689074E-003   8.5650196532138296E-005
  0.40756302521008447        4.2016806722689074E-003   8.3342469177724086E-005
  0.41596638655462231        4.2016806722689074E-003   8.0526582576527975E-005
  0.42436974789916015        4.2016806722689074E-003   7.7185832860578234E-005
  0.43277310924369800        4.2016806722689074E-003   7.3306180831361257E-005
  0.44117647058823584        4.2016806722689074E-003   6.8876525472596001E-005
  0.44957983193277368        4.2016806722689074E-003   6.3888949338872334E-005
  0.45798319327731152        4.2016806722689074E-003   5.8338916642342999E-005
  0.46638655462184936        4.2016806722689074E-003   5.2225415670191520E-005
  0.47478991596638720        4.2016806722689074E-003   4.5551105129284189E-005
  0.48319327731092504        4.2016806722689074E-003   3.8322509517088585E-005
  0.49159663865546288        4.2016806722689074E-003   3.0549906483993616E-005
  0.50000000000000067        4.2016806722689074E-003   2.2247855845422298E-005
  0.50840336134453845        4.2016806722689074E-003   1.3446081601167006E-005
  0.51680672268907624        4.2016806722689074E-003   4.2189686717009496E-006
  0.52521008403361402        4.2016806722689074E-003  -5.3252996333529022E-006
  0.53361344537815181        4.2016806722689074E-003  -1.5116289460148646E-005
  0.54201680672268959        4.2016806722689074E-003  -2.5125205046618672E-005
  0.55042016806722738        4.2016806722689074E-003  -3.5311750614721686E-005
  0.55882352941176516        4.2016806722689074E-003  -4.5616196972718760E-005
  0.56722689075630295        4.2016806722689074E-003  -5.5965308690127154E-005
  0.57563025210084073        4.2016806722689074E-003  -6.6276586235526120E-005
  0.58403361344537852        4.2016806722689074E-003  -7.6460859803845928E-005
  0.59243697478991630        4.2016806722689074E-003  -8.6424195889032789E-005
  0.60084033613445409        4.2016806722689074E-003  -9.6069451362178744E-005
  0.60924369747899187        4.2016806722689074E-003  -1.0529768574003766E-004
  0.61764705882352966        4.2016806722689074E-003  -1.1400956855830174E-004
  0.62605042016806745        4.2016806722689074E-003  -1.2210684553559789E-004
  0.63445378151260523        4.2016806722689074E-003  -1.2949388254186565E-004
  0.64285714285714302        4.2016806722689074E-003  -1.3607928190707261E-004
  0.65126050420168080        4.2016806722689074E-003  -1.4177755072349637E-004
  0.65966386554621859        4.2016806722689074E-003  -1.4651079072344940E-004
  0.66806722689075637        4.2016806722689074E-003  -1.5021037195248554E-004
  0.67647058823529416        4.2016806722689074E-003  -1.5281854682005962E-004
  0.68487394957983194        4.2016806722689074E-003  -1.5428995680420721E-004
  0.69327731092436973        4.2016806722689074E-003  -1.5459298093781400E-004
  0.70168067226890751        4.2016806722689074E-003  -1.5371087279716133E-004
  0.71008403361344530        4.2016806722689074E-003  -1.5164262961826303E-004
  0.71848739495798308        4.2016806722689074E-003  -1.4840352890654776E-004
  0.72689075630252087        4.2016806722689074E-003  -1.4402524580156754E-004
  0.73529411764705865        4.2016806722689074E-003  -1.3855542436366991E-004
  0.74369747899159644        4.2016806722689074E-003  -1.3205648983204415E-004
  0.75210084033613422        4.2016806722689074E-003  -1.2460297568923489E-004
  0.76050420168067201        4.2016806722689074E-003  -1.1627529398144300E-004
  0.76890756302520979        4.2016806722689074E-003  -1.0715361674223802E-004
  0.77731092436974758        4.2016806722689074E-003  -9.7353905481348837E-005
  0.78571428571428537        4.2016806722689074E-003  -8.7044191361167298E-005
  0.79411764705882315        4.2016806722689074E-003  -7.6381705480943018E-005
  0.80252100840336094        4.2016806722689074E-003  -6.5486114729331141E-005
  0.81092436974789872        4.2016806722689074E-003  -5.4474859024693759E-005
  0.81932773109243651        4.2016806722689074E-003  -4.3468765068843698E-005
  0.82773109243697429        4.2016806722689074E-003  -3.2586154393307210E-005
  0.83613445378151208        4.2016806722689074E-003  -2.1939384836102873E-005
  0.84453781512604986        4.2016806722689074E-003  -1.1634049324427916E-005
  0.85294117647058765        4.2016806722689074E-003  -1.7676255667429830E-006
  0.86134453781512543        4.2016806722689074E-003   7.5734762022980974E-006
  0.86974789915966322        4.2016806722689074E-003   1.6316327550639763E-005
  0.87815126050420100        4.2016806722689074E-003   2.4394063648722893E-005
  0.88655462184873879        4.2016806722689074E-003   3.1737088596700788E-005
  0.89495798319327657        4.2016806722689074E-003   3.8269711458484922E-005
  0.90336134453781436        4.2016806722689074E-003   4.3902465432007884E-005
  0.91176470588235214        4.2016806722689074E-003   4.8524191938110667E-005
  0.92016806722688993        4.2016806722689074E-003   5.1992544152539230E-005
  0.92857142857142771        4.2016806722689074E-003   5.4121836087828026E-005
  0.93697478991596550        4.2016806722689074E-003   5.4668299017335617E-005
  0.94537815126050329        4.2016806722689074E-003   5.3314498094522799E-005
  0.95378151260504107        4.2016806722689074E-003   4.9660357505062719E-005
  0.96218487394957886        4.2016806722689074E-003   4.3247136442654959E-005
  0.97058823529411664        4.2016806722689074E-003   3.3681209243910838E-005
  0.97899159663865443        4.2016806722689074E-003   2.0987477660312824E-005
  0.98739495798319221        4.2016806722689074E-003   6.6083962059615770E-006
  0.99579831932773000        4.2016806722689074E-003  -3.6309972849905741E-006
   1.0000000000000000        4.2016806722689074E-003   0.0000000000000000     
   0.0000000000000000        1.2605042016806723E-002   0.0000000000000000     
   4.2016806722689074E-003   1.2605042016806723E-002  -1.2533796034750603E-005
   1.2605042016806723E-002   1.2605042016806723E-002  -4.2942935311387032E-005
   2.1008403361344540E-002   1.2605042016806723E-002  -6.0321663244399750E-005
   2.9411764705882353E-002   1.2605042016806723E-002  -6.4072501744963712E-005
   3.7815126050420166E-002   1.2605042016806723E-002  -5.7764213135035965E-005
   4.6218487394957979E-002   1.2605042016806723E-002  -4.4642410850550281E-005
   5.4621848739495792E-002   1.2605042016806723E-002  -2.7206853448356369E-005
   6.3025210084033612E-002   1.2605042016806723E-002  -7.2956103680645824E-006
   7.1428571428571425E-002   1.2605042016806723E-002   1.3800364943748598E-005
   7.9831932773109238E-002   1.2605042016806723E-002   3.5201575680284236E-005
   8.8235294117647051E-002   1.2605042016806723E-002   5.6332791897515317E-005
   9.6638655462184864E-002   1.2605042016806723E-002   7.6836507286666579E-005
  0.10504201680672268        1.2605042016806723E-002   9.6515368425175357E-005
  0.11344537815126049        1.2605042016806723E-002   1.1528328708871816E-004
  0.12184873949579830        1.2605042016806723E-002   1.3313083195266043E-004
  0.13025210084033612        1.2605042016806723E-002   1.5010777580979956E-004
  0.13865546218487393        1.2605042016806723E-002   1.6629881807534786E-004
  0.14705882352941174        1.2605042016806723E-002   1.8180651715230718E-004
  0.15546218487394955        1.2605042016806723E-002   1.9673890795956746E-004
  0.16386554621848737        1.2605042016806723E-002   2.1120100423789638E-004
  0.17226890756302518        1.2605042016806723E-002   2.2528866582791822E-004
  0.18067226890756299        1.2605042016806723E-002   2.3908418666478037E-004
  0.18907563025210081        1.2605042016806723E-002   2.5265337777113575E-004
  0.19747899159663862        1.2605042016806723E-002   2.6604388879599192E-004
  0.20588235294117643        1.2605042016806723E-002   2.7928450633606398E-004
  0.21428571428571425        1.2605042016806723E-002   2.9238519797021318E-004
  0.22268907563025206        1.2605042016806723E-002   3.0533770546625755E-004
  0.23109243697478987        1.2605042016806723E-002   3.1811652314755958E-004
  0.23949579831932769        1.2605042016806723E-002   3.3068012788304446E-004
  0.24789915966386550        1.2605042016806723E-002   3.4297235531254250E-004
  0.25630252100840334        1.2605042016806723E-002   3.5492384240346891E-004
  0.26470588235294118        1.2605042016806723E-002   3.6645347897589148E-004
  0.27310924369747902        1.2605042016806723E-002   3.7746983027179035E-004
  0.28151260504201686        1.2605042016806723E-002   3.8787250885834315E-004
  0.28991596638655470        1.2605042016806723E-002   3.9755348717570964E-004
  0.29831932773109254        1.2605042016806723E-002   4.0639835195749568E-004
  0.30672268907563038        1.2605042016806723E-002   4.1428750879381556E-004
  0.31512605042016822        1.2605042016806723E-002   4.2109734955214954E-004
  0.32352941176470607        1.2605042016806723E-002   4.2670139759852971E-004
  0.33193277310924391        1.2605042016806723E-002   4.3097144612956400E-004
  0.34033613445378175        1.2605042016806723E-002   4.3377870387395837E-004
  0.34873949579831959        1.2605042016806723E-002   4.3499496029596689E-004
  0.35714285714285743        1.2605042016806723E-002   4.3449377963263345E-004
  0.36554621848739527        1.2605042016806723E-002   4.3215172989396653E-004
  0.37394957983193311        1.2605042016806723E-002   4.2784964961566259E-004
  0.38235294117647095        1.2605042016806723E-002   4.2147395187839415E-004
  0.39075630252100879        1.2605042016806723E-002   4.1291796199774031E-004
  0.39915966386554663        1.2605042016806723E-002   4.0208328239279271E-004
  0.40756302521008447        1.2605042016806723E-002   3.8888117544815746E-004
  0.41596638655462231        1.2605042016806723E-002   3.7323395248052929E-004
  0.42436974789916015        1.2605042016806723E-002   3.5507635402037000E-004
  0.43277310924369800        1.2605042016806723E-002   3.3435690363460942E-004
  0.44117647058823584        1.2605042016806723E-002   3.1103921491161426E-004
  0.44957983193277368        1.2605042016806723E-002   2.8510322654513214E-004
  0.45798319327731152        1.2605042016806723E-002   2.5654633543072879E-004
  0.46638655462184936        1.2605042016806723E-002   2.2538446158500229E-004
  0.47478991596638720        1.2605042016806723E-002   1.9165333950788065E-004
  0.48319327731092504        1.2605042016806723E-002   1.5541032490830372E-004
  0.49159663865546288        1.2605042016806723E-002   1.1673584222127902E-004
  0.50000000000000067        1.2605042016806723E-002   7.5738410277247667E-005
  0.50840336134453845        1.2605042016806723E-002   3.2594975941252624E-005
  0.51680672268907624        1.2605042016806723E-002  -1.2359426700194306E-005
  0.52521008403361402        1.2605042016806723E-002  -5.8725228165159053E-005
  0.53361344537815181        1.2605042016806723E-002  -1.0623210178877096E-004
  0.54201680672268959        1.2605042016806723E-002  -1.5469119239802201E-004
  0.55042016806722738        1.2605042016806723E-002  -2.0386099708417709E-004
  0.55882352941176516        1.2605042016806723E-002  -2.5343480996907459E-004
  0.56722689075630295        1.2605042016806723E-002  -3.0305815326879608E-004
  0.57563025210084073        1.2605042016806723E-002  -3.5234138532269172E-004
  0.58403361344537852        1.2605042016806723E-002  -4.0086865866994408E-004
  0.59243697478991630        1.2605042016806723E-002  -4.4820527632074392E-004
  0.60084033613445409        1.2605042016806723E-002  -4.9390417125646179E-004
  0.60924369747899187        1.2605042016806723E-002  -5.3751208130369324E-004
  0.61764705882352966        1.2605042016806723E-002  -5.7857580678057671E-004
  0.62605042016806745        1.2605042016806723E-002  -6.1664873190988559E-004
  0.63445378151260523        1.2605042016806723E-002  -6.5129765757496888E-004
  0.64285714285714302        1.2605042016806723E-002  -6.8210991207098696E-004
  0.65126050420168080        1.2605042016806723E-002  -7.0870065249177886E-004
  0.65966386554621859        1.2605042016806723E-002  -7.3072023037525546E-004
  0.66806722689075637        1.2605042016806723E-002  -7.4786146532149927E-004
  0.67647058823529416        1.2605042016806723E-002  -7.5986664659006263E-004
  0.68487394957983194        1.2605042016806723E-002  -7.6653406398439431E-004
  0.69327731092436973        1.2605042016806723E-002  -7.6772385508848602E-004
  0.70168067226890751        1.2605042016806723E-002  -7.6336294507654422E-004
  0.71008403361344530        1.2605042016806723E-002  -7.5344884445811323E-004
  0.71848739495798308        1.2605042016806723E-002  -7.3805204883215479E-004
  0.72689075630252087        1.2605042016806723E-002  -7.1731672929383015E-004
  0.73529411764705865        1.2605042016806723E-002  -6.9145929917896942E-004
  0.74369747899159644        1.2605042016806723E-002  -6.6076432087505492E-004
  0.75210084033613422        1.2605042016806723E-002  -6.2557643881285257E-004
  0.76050420168067201        1.2605042016806723E-002  -5.8628323743863987E-004
  0.76890756302520979        1.2605042016806723E-002  -5.4328825414133868E-004
  0.77731092436974758        1.2605042016806723E-002  -4.9704370298436762E-004
  0.78571428571428537        1.2605042016806723E-002  -4.4825921613221218E-004
  0.79411764705882315        1.2605042016806723E-002  -3.9768480276330639E-004
  0.80252100840336094        1.2605042016806723E-002  -3.4591008637639768E-004
  0.81092436974789872        1.2605042016806723E-002  -2.9349207090005732E-004
  0.81932773109243651        1.2605042016806723E-002  -2.4099930156151007E-004
  0.82773109243697429        1.2605042016806723E-002  -1.8899342966230623E-004
  0.83613445378151208        1.2605042016806723E-002  -1.3801186918666321E-004
  0.84453781512604986        1.2605042016806723E-002  -8.8563955652822663E-005
  0.85294117647058765        1.2605042016806723E-002  -4.1126978862740862E-005
  0.86134453781512543        1.2605042016806723E-002   3.8634899973020388E-006
  0.86974789915966322        1.2605042016806723E-002   4.6028421774199917E-005
  0.87815126050420100        1.2605042016806723E-002   8.5019002760457167E-005
  0.88655462184873879        1.2605042016806723E-002   1.2047380238727507E-004
  0.89495798319327657        1.2605042016806723E-002   1.5200498148448469E-004
  0.90336134453781436        1.2605042016806723E-002   1.7916957567500673E-004
  0.91176470588235214        1.2605042016806723E-002   2.0143975555830926E-004
  0.92016806722688993        1.2605042016806723E-002   2.1816925418956183E-004
  0.92857142857142771        1.2605042016806723E-002   2.2855464095756990E-004
  0.93697478991596550        1.2605042016806723E-002   2.3159508357603029E-004
  0.94537815126050329        1.2605042016806723E-002   2.2606170131830486E-004
  0.95378151260504107        1.2605042016806723E-002   2.1050816906427992E-004
  0.96218487394957886        1.2605042016806723E-002   1.8341476370339871E-004
  0.97058823529411664        1.2605042016806723E-002   1.4367155822920925E-004
  0.97899159663865443        1.2605042016806723E-002   9.1747396532521487E-005
  0.98739495798319221        1.2605042016806723E-002   3.2812355535896666E-005
  0.99579831932773000        1.2605042016806723E-002  -1.2757397643202918E-005
   1.0000000000000000        1.2605042016806723E-002   0.0000000000000000     
   0.0000000000000000        2.1008403361344540E-002   0.0000000000000000     
   4.2016806722689074E-003   2.1008403361344540E-002  -4.3941009630946165E-005
   1.2605042016806723E-002   2.1008403361344540E-002  -1.0999678565961145E-004
   2.1008403361344540E-002   2.1008403361344540E-002  -1.4385459340785021E-004
   2.9411764705882353E-002   2.1008403361344540E-002  -1.4819931924251392E-004
   3.7815126050420166E-002   2.1008403361344540E-002  -1.2968681922284362E-004
   4.6218487394957979E-002   2.1008403361344540E-002  -9.4747203094371418E-005
   5.4621848739495792E-002   2.1008403361344540E-002  -4.8736838907180514E-005
   6.3025210084033612E-002   2.1008403361344540E-002   4.1585635913681079E-006
   7.1428571428571425E-002   2.1008403361344540E-002   6.0817149802305594E-005
   7.9831932773109238E-002   2.1008403361344540E-002   1.1898572466324758E-004
   8.8235294117647051E-002   2.1008403361344540E-002   1.7710986940648948E-004
   9.6638655462184864E-002   2.1008403361344540E-002   2.3416144107532197E-004
  0.10504201680672268        2.1008403361344540E-002   2.8951156848559730E-004
  0.11344537815126049        2.1008403361344540E-002   3.4282675084148302E-004