 title=V
 variables=x,y,V
 zone i=         171 ,j=         171
 
   0.0000000000000000        0.0000000000000000        0.0000000000000000     
   2.9585798816568047E-003   0.0000000000000000        0.0000000000000000     
   8.8757396449704144E-003   0.0000000000000000        0.0000000000000000     
   1.4792899408284023E-002   0.0000000000000000        0.0000000000000000     
   2.0710059171597631E-002   0.0000000000000000        0.0000000000000000     
   2.6627218934911240E-002   0.0000000000000000        0.0000000000000000     
   3.2544378698224852E-002   0.0000000000000000        0.0000000000000000     
   3.8461538461538464E-002   0.0000000000000000        0.0000000000000000     
   4.4378698224852076E-002   0.0000000000000000        0.0000000000000000     
   5.0295857988165688E-002   0.0000000000000000        0.0000000000000000     
   5.6213017751479299E-002   0.0000000000000000        0.0000000000000000     
   6.2130177514792911E-002   0.0000000000000000        0.0000000000000000     
   6.8047337278106523E-002   0.0000000000000000        0.0000000000000000     
   7.3964497041420135E-002   0.0000000000000000        0.0000000000000000     
   7.9881656804733747E-002   0.0000000000000000        0.0000000000000000     
   8.5798816568047359E-002   0.0000000000000000        0.0000000000000000     
   9.1715976331360971E-002   0.0000000000000000        0.0000000000000000     
   9.7633136094674583E-002   0.0000000000000000        0.0000000000000000     
  0.10355029585798819        0.0000000000000000        0.0000000000000000     
  0.10946745562130181        0.0000000000000000        0.0000000000000000     
  0.11538461538461542        0.0000000000000000        0.0000000000000000     
  0.12130177514792903        0.0000000000000000        0.0000000000000000     
  0.12721893491124264        0.0000000000000000        0.0000000000000000     
  0.13313609467455625        0.0000000000000000        0.0000000000000000     
  0.13905325443786987        0.0000000000000000        0.0000000000000000     
  0.14497041420118348        0.0000000000000000        0.0000000000000000     
  0.15088757396449709        0.0000000000000000        0.0000000000000000     
  0.15680473372781070        0.0000000000000000        0.0000000000000000     
  0.16272189349112431        0.0000000000000000        0.0000000000000000     
  0.16863905325443793        0.0000000000000000        0.0000000000000000     
  0.17455621301775154        0.0000000000000000        0.0000000000000000     
  0.18047337278106515        0.0000000000000000        0.0000000000000000     
  0.18639053254437876        0.0000000000000000        0.0000000000000000     
  0.19230769230769237        0.0000000000000000        0.0000000000000000     
  0.19822485207100599        0.0000000000000000        0.0000000000000000     
  0.20414201183431960        0.0000000000000000        0.0000000000000000     
  0.21005917159763321        0.0000000000000000        0.0000000000000000     
  0.21597633136094682        0.0000000000000000        0.0000000000000000     
  0.22189349112426043        0.0000000000000000        0.0000000000000000     
  0.22781065088757405        0.0000000000000000        0.0000000000000000     
  0.23372781065088766        0.0000000000000000        0.0000000000000000     
  0.23964497041420127        0.0000000000000000        0.0000000000000000     
  0.24556213017751488        0.0000000000000000        0.0000000000000000     
  0.25147928994082847        0.0000000000000000        0.0000000000000000     
  0.25739644970414205        0.0000000000000000        0.0000000000000000     
  0.26331360946745563        0.0000000000000000        0.0000000000000000     
  0.26923076923076922        0.0000000000000000        0.0000000000000000     
  0.27514792899408280        0.0000000000000000        0.0000000000000000     
  0.28106508875739639        0.0000000000000000        0.0000000000000000     
  0.28698224852070997        0.0000000000000000        0.0000000000000000     
  0.29289940828402355        0.0000000000000000        0.0000000000000000     
  0.29881656804733714        0.0000000000000000        0.0000000000000000     
  0.30473372781065072        0.0000000000000000        0.0000000000000000     
  0.31065088757396431        0.0000000000000000        0.0000000000000000     
  0.31656804733727789        0.0000000000000000        0.0000000000000000     
  0.32248520710059148        0.0000000000000000        0.0000000000000000     
  0.32840236686390506        0.0000000000000000        0.0000000000000000     
  0.33431952662721864        0.0000000000000000        0.0000000000000000     
  0.34023668639053223        0.0000000000000000        0.0000000000000000     
  0.34615384615384581        0.0000000000000000        0.0000000000000000     
  0.35207100591715940        0.0000000000000000        0.0000000000000000     
  0.35798816568047298        0.0000000000000000        0.0000000000000000     
  0.36390532544378656        0.0000000000000000        0.0000000000000000     
  0.36982248520710015        0.0000000000000000        0.0000000000000000     
  0.37573964497041373        0.0000000000000000        0.0000000000000000     
  0.38165680473372732        0.0000000000000000        0.0000000000000000     
  0.38757396449704090        0.0000000000000000        0.0000000000000000     
  0.39349112426035449        0.0000000000000000        0.0000000000000000     
  0.39940828402366807        0.0000000000000000        0.0000000000000000     
  0.40532544378698165        0.0000000000000000        0.0000000000000000     
  0.41124260355029524        0.0000000000000000        0.0000000000000000     
  0.41715976331360882        0.0000000000000000        0.0000000000000000     
  0.42307692307692241        0.0000000000000000        0.0000000000000000     
  0.42899408284023599        0.0000000000000000        0.0000000000000000     
  0.43491124260354957        0.0000000000000000        0.0000000000000000     
  0.44082840236686316        0.0000000000000000        0.0000000000000000     
  0.44674556213017674        0.0000000000000000        0.0000000000000000     
  0.45266272189349033        0.0000000000000000        0.0000000000000000     
  0.45857988165680391        0.0000000000000000        0.0000000000000000     
  0.46449704142011750        0.0000000000000000        0.0000000000000000     
  0.47041420118343108        0.0000000000000000        0.0000000000000000     
  0.47633136094674466        0.0000000000000000        0.0000000000000000     
  0.48224852071005825        0.0000000000000000        0.0000000000000000     
  0.48816568047337183        0.0000000000000000        0.0000000000000000     
  0.49408284023668542        0.0000000000000000        0.0000000000000000     
  0.49999999999999900        0.0000000000000000        0.0000000000000000     
  0.50591715976331264        0.0000000000000000        0.0000000000000000     
  0.51183431952662628        0.0000000000000000        0.0000000000000000     
  0.51775147928993992        0.0000000000000000        0.0000000000000000     
  0.52366863905325356        0.0000000000000000        0.0000000000000000     
  0.52958579881656720        0.0000000000000000        0.0000000000000000     
  0.53550295857988084        0.0000000000000000        0.0000000000000000     
  0.54142011834319448        0.0000000000000000        0.0000000000000000     
  0.54733727810650812        0.0000000000000000        0.0000000000000000     
  0.55325443786982176        0.0000000000000000        0.0000000000000000     
  0.55917159763313540        0.0000000000000000        0.0000000000000000     
  0.56508875739644904        0.0000000000000000        0.0000000000000000     
  0.57100591715976268        0.0000000000000000        0.0000000000000000     
  0.57692307692307632        0.0000000000000000        0.0000000000000000     
  0.58284023668638996        0.0000000000000000        0.0000000000000000     
  0.58875739644970360        0.0000000000000000        0.0000000000000000     
  0.59467455621301724        0.0000000000000000        0.0000000000000000     
  0.60059171597633088        0.0000000000000000        0.0000000000000000     
  0.60650887573964452        0.0000000000000000        0.0000000000000000     
  0.61242603550295815        0.0000000000000000        0.0000000000000000     
  0.61834319526627179        0.0000000000000000        0.0000000000000000     
  0.62426035502958543        0.0000000000000000        0.0000000000000000     
  0.63017751479289907        0.0000000000000000        0.0000000000000000     
  0.63609467455621271        0.0000000000000000        0.0000000000000000     
  0.64201183431952635        0.0000000000000000        0.0000000000000000     
  0.64792899408283999        0.0000000000000000        0.0000000000000000     
  0.65384615384615363        0.0000000000000000        0.0000000000000000     
  0.65976331360946727        0.0000000000000000        0.0000000000000000     
  0.66568047337278091        0.0000000000000000        0.0000000000000000     
  0.67159763313609455        0.0000000000000000        0.0000000000000000     
  0.67751479289940819        0.0000000000000000        0.0000000000000000     
  0.68343195266272183        0.0000000000000000        0.0000000000000000     
  0.68934911242603547        0.0000000000000000        0.0000000000000000     
  0.69526627218934911        0.0000000000000000        0.0000000000000000     
  0.70118343195266275        0.0000000000000000        0.0000000000000000     
  0.70710059171597639        0.0000000000000000        0.0000000000000000     
  0.71301775147929003        0.0000000000000000        0.0000000000000000     
  0.71893491124260367        0.0000000000000000        0.0000000000000000     
  0.72485207100591731        0.0000000000000000        0.0000000000000000     
  0.73076923076923095        0.0000000000000000        0.0000000000000000     
  0.73668639053254459        0.0000000000000000        0.0000000000000000     
  0.74260355029585823        0.0000000000000000        0.0000000000000000     
  0.74852071005917187        0.0000000000000000        0.0000000000000000     
  0.75443786982248551        0.0000000000000000        0.0000000000000000     
  0.76035502958579915        0.0000000000000000        0.0000000000000000     
  0.76627218934911279        0.0000000000000000        0.0000000000000000     
  0.77218934911242643        0.0000000000000000        0.0000000000000000     
  0.77810650887574007        0.0000000000000000        0.0000000000000000     
  0.78402366863905371        0.0000000000000000        0.0000000000000000     
  0.78994082840236735        0.0000000000000000        0.0000000000000000     
  0.79585798816568099        0.0000000000000000        0.0000000000000000     
  0.80177514792899462        0.0000000000000000        0.0000000000000000     
  0.80769230769230826        0.0000000000000000        0.0000000000000000     
  0.81360946745562190        0.0000000000000000        0.0000000000000000     
  0.81952662721893554        0.0000000000000000        0.0000000000000000     
  0.82544378698224918        0.0000000000000000        0.0000000000000000     
  0.83136094674556282        0.0000000000000000        0.0000000000000000     
  0.83727810650887646        0.0000000000000000        0.0000000000000000     
  0.84319526627219010        0.0000000000000000        0.0000000000000000     
  0.84911242603550374        0.0000000000000000        0.0000000000000000     
  0.85502958579881738        0.0000000000000000        0.0000000000000000     
  0.86094674556213102        0.0000000000000000        0.0000000000000000     
  0.86686390532544466        0.0000000000000000        0.0000000000000000     
  0.87278106508875830        0.0000000000000000        0.0000000000000000     
  0.87869822485207194        0.0000000000000000        0.0000000000000000     
  0.88461538461538558        0.0000000000000000        0.0000000000000000     
  0.89053254437869922        0.0000000000000000        0.0000000000000000     
  0.89644970414201286        0.0000000000000000        0.0000000000000000     
  0.90236686390532650        0.0000000000000000        0.0000000000000000     
  0.90828402366864014        0.0000000000000000        0.0000000000000000     
  0.91420118343195378        0.0000000000000000        0.0000000000000000     
  0.92011834319526742        0.0000000000000000        0.0000000000000000     
  0.92603550295858106        0.0000000000000000        0.0000000000000000     
  0.93195266272189470        0.0000000000000000        0.0000000000000000     
  0.93786982248520834        0.0000000000000000        0.0000000000000000     
  0.94378698224852198        0.0000000000000000        0.0000000000000000     
  0.94970414201183562        0.0000000000000000        0.0000000000000000     
  0.95562130177514926        0.0000000000000000        0.0000000000000000     
  0.96153846153846290        0.0000000000000000        0.0000000000000000     
  0.96745562130177654        0.0000000000000000        0.0000000000000000     
  0.97337278106509018        0.0000000000000000        0.0000000000000000     
  0.97928994082840382        0.0000000000000000        0.0000000000000000     
  0.98520710059171746        0.0000000000000000        0.0000000000000000     
  0.99112426035503109        0.0000000000000000        0.0000000000000000     
  0.99704142011834473        0.0000000000000000        0.0000000000000000     
   1.0000000000000000        0.0000000000000000        0.0000000000000000     
   0.0000000000000000        2.9585798816568047E-003   0.0000000000000000     
   2.9585798816568047E-003   2.9585798816568047E-003   1.9328400493427801E-006
   8.8757396449704144E-003   2.9585798816568047E-003  -1.6994843334828708E-006
   1.4792899408284023E-002   2.9585798816568047E-003  -4.9995880799971772E-006
   2.0710059171597631E-002   2.9585798816568047E-003  -6.8974842786853398E-006
   2.6627218934911240E-002   2.9585798816568047E-003  -7.6772365375682370E-006
   3.2544378698224852E-002   2.9585798816568047E-003  -7.6496678815090741E-006
   3.8461538461538464E-002   2.9585798816568047E-003  -7.0544136563780589E-006
   4.4378698224852076E-002   2.9585798816568047E-003  -6.0708672166943233E-006
   5.0295857988165688E-002   2.9585798816568047E-003  -4.8285232396093349E-006
   5.6213017751479299E-002   2.9585798816568047E-003  -3.4199628773340958E-006
   6.2130177514792911E-002   2.9585798816568047E-003  -1.9119736615773861E-006
   6.8047337278106523E-002   2.9585798816568047E-003  -3.5307153707610172E-007
   7.3964497041420135E-002   2.9585798816568047E-003   1.2215175648895361E-006
   7.9881656804733747E-002   2.9585798816568047E-003   2.7864269353282059E-006
   8.5798816568047359E-002   2.9585798816568047E-003   4.3238113251394135E-006
   9.1715976331360971E-002   2.9585798816568047E-003   5.8216232354543510E-006
   9.7633136094674583E-002   2.9585798816568047E-003   7.2723118446814499E-006
  0.10355029585798819        2.9585798816568047E-003   8.6719668002609734E-006
  0.10946745562130181        2.9585798816568047E-003   1.0019190184017918E-005
  0.11538461538461542        2.9585798816568047E-003   1.1314586474640557E-005
  0.12130177514792903        2.9585798816568047E-003   1.2560388519373308E-005
  0.12721893491124264        2.9585798816568047E-003   1.3759980842811110E-005
  0.13313609467455625        2.9585798816568047E-003   1.4917606011969755E-005
  0.13905325443786987        2.9585798816568047E-003   1.6037924446128543E-005
  0.14497041420118348        2.9585798816568047E-003   1.7125743138853327E-005
  0.15088757396449709        2.9585798816568047E-003   1.8185861306289948E-005
  0.15680473372781070        2.9585798816568047E-003   1.9222923864213647E-005
  0.16272189349112431        2.9585798816568047E-003   2.0241299145277276E-005
  0.16863905325443793        2.9585798816568047E-003   2.1244983759935203E-005
  0.17455621301775154        2.9585798816568047E-003   2.2237532012974450E-005
  0.18047337278106515        2.9585798816568047E-003   2.3222006418309317E-005
  0.18639053254437876        2.9585798816568047E-003   2.4200946048668467E-005
  0.19230769230769237        2.9585798816568047E-003   2.5176349754430473E-005
  0.19822485207100599        2.9585798816568047E-003   2.6149671576798583E-005
  0.20414201183431960        2.9585798816568047E-003   2.7121825977044610E-005
  0.21005917159763321        2.9585798816568047E-003   2.8093200784830084E-005
  0.21597633136094682        2.9585798816568047E-003   2.9063676032730954E-005
  0.22189349112426043        2.9585798816568047E-003   3.0032647093881150E-005
  0.22781065088757405        2.9585798816568047E-003   3.0999050777113572E-005
  0.23372781065088766        2.9585798816568047E-003   3.1961393252417617E-005
  0.23964497041420127        2.9585798816568047E-003   3.2917778889586099E-005
  0.24556213017751488        2.9585798816568047E-003   3.3865939276407346E-005
  0.25147928994082847        2.9585798816568047E-003   3.4803261860111067E-005
  0.25739644970414205        2.9585798816568047E-003   3.5726817809085246E-005
  0.26331360946745563        2.9585798816568047E-003   3.6633388827012335E-005
  0.26923076923076922        2.9585798816568047E-003   3.7519492773320458E-005
  0.27514792899408280        2.9585798816568047E-003   3.8381408041184870E-005
  0.28106508875739639        2.9585798816568047E-003   3.9215196730097290E-005
  0.28698224852070997        2.9585798816568047E-003   4.0016726713440900E-005
  0.29289940828402355        2.9585798816568047E-003   4.0781692754584594E-005
  0.29881656804733714        2.9585798816568047E-003   4.1505636857725894E-005
  0.30473372781065072        2.9585798816568047E-003   4.2183968064290418E-005
  0.31065088757396431        2.9585798816568047E-003   4.2811981914193740E-005
  0.31656804733727789        2.9585798816568047E-003   4.3384879793841231E-005
  0.32248520710059148        2.9585798816568047E-003   4.3897788382278640E-005
  0.32840236686390506        2.9585798816568047E-003   4.4345779393411467E-005
  0.33431952662721864        2.9585798816568047E-003   4.4723889790750309E-005
  0.34023668639053223        2.9585798816568047E-003   4.5027142627814772E-005
  0.34615384615384581        2.9585798816568047E-003   4.5250568638064697E-005
  0.35207100591715940        2.9585798816568047E-003   4.5389228672677699E-005
  0.35798816568047298        2.9585798816568047E-003   4.5438237050681433E-005
  0.36390532544378656        2.9585798816568047E-003   4.5392785860858316E-005
  0.36982248520710015        2.9585798816568047E-003   4.5248170222154322E-005
  0.37573964497041373        2.9585798816568047E-003   4.4999814484515288E-005
  0.38165680473372732        2.9585798816568047E-003   4.4643299321241220E-005
  0.38757396449704090        2.9585798816568047E-003   4.4174389644856251E-005
  0.39349112426035449        2.9585798816568047E-003   4.3589063247785060E-005
  0.39940828402366807        2.9585798816568047E-003   4.2883540055509674E-005
  0.40532544378698165        2.9585798816568047E-003   4.2054311853245309E-005
  0.41124260355029524        2.9585798816568047E-003   4.1098172333751651E-005
  0.41715976331360882        2.9585798816568047E-003   4.0012247294079246E-005
  0.42307692307692241        2.9585798816568047E-003   3.8794024790470757E-005
  0.42899408284023599        2.9585798816568047E-003   3.7441385034861419E-005
  0.43491124260354957        2.9585798816568047E-003   3.5952629780488776E-005
  0.44082840236686316        2.9585798816568047E-003   3.4326510879588182E-005
  0.44674556213017674        2.9585798816568047E-003   3.2562257581871547E-005
  0.45266272189349033        2.9585798816568047E-003   3.0659601972194191E-005
  0.45857988165680391        2.9585798816568047E-003   2.8618801728898943E-005
  0.46449704142011750        2.9585798816568047E-003   2.6440659042759382E-005
  0.47041420118343108        2.9585798816568047E-003   2.4126533842316756E-005
  0.47633136094674466        2.9585798816568047E-003   2.1678351299094040E-005
  0.48224852071005825        2.9585798816568047E-003   1.9098617405004108E-005
  0.48816568047337183        2.9585798816568047E-003   1.6390467525189980E-005
  0.49408284023668542        2.9585798816568047E-003   1.3557707100121722E-005
  0.49999999999999900        2.9585798816568047E-003   1.0604883114896095E-005
  0.50591715976331264        2.9585798816568047E-003   7.5385940158591685E-006
  0.51183431952662628        2.9585798816568047E-003   4.3719144710375787E-006
  0.51775147928993992        2.9585798816568047E-003   1.1278574908465641E-006
  0.52366863905325356        2.9585798816568047E-003  -2.1764890238533670E-006
  0.52958579881656720        2.9585798816568047E-003  -5.5366574974839457E-006
  0.53550295857988084        2.9585798816568047E-003  -8.9478143759630657E-006
  0.54142011834319448        2.9585798816568047E-003  -1.2401888504245628E-005
  0.54733727810650812        2.9585798816568047E-003  -1.5888417094031826E-005
  0.55325443786982176        2.9585798816568047E-003  -1.9395261687804072E-005
  0.55917159763313540        2.9585798816568047E-003  -2.2909040064498703E-005
  0.56508875739644904        2.9585798816568047E-003  -2.6415428410783496E-005
  0.57100591715976268        2.9585798816568047E-003  -2.9899374861767454E-005
  0.57692307692307632        2.9585798816568047E-003  -3.3345257104591476E-005
  0.58284023668638996        2.9585798816568047E-003  -3.6737011899439256E-005
  0.58875739644970360        2.9585798816568047E-003  -4.0058252934626838E-005
  0.59467455621301724        2.9585798816568047E-003  -4.3292385656571753E-005
  0.60059171597633088        2.9585798816568047E-003  -4.6422723559060131E-005
  0.60650887573964452        2.9585798816568047E-003  -4.9432608096616657E-005
  0.61242603550295815        2.9585798816568047E-003  -5.2305533015692017E-005
  0.61834319526627179        2.9585798816568047E-003  -5.5025273078237278E-005
  0.62426035502958543        2.9585798816568047E-003  -5.7576016640274559E-005
  0.63017751479289907        2.9585798816568047E-003  -5.9942501186724659E-005
  0.63609467455621271        2.9585798816568047E-003  -6.2110150666903636E-005
  0.64201183431952635        2.9585798816568047E-003  -6.4065213266745481E-005
  0.64792899408283999        2.9585798816568047E-003  -6.5794898088419686E-005
  0.65384615384615363        2.9585798816568047E-003  -6.7287509070552051E-005
  0.65976331360946727        2.9585798816568047E-003  -6.8532574376134559E-005
  0.66568047337278091        2.9585798816568047E-003  -6.9520969390414374E-005
  0.67159763313609455        2.9585798816568047E-003  -7.0245031425429102E-005
  0.67751479289940819        2.9585798816568047E-003  -7.0698664195720457E-005
  0.68343195266272183        2.9585798816568047E-003  -7.0877430142476060E-005
  0.68934911242603547        2.9585798816568047E-003  -7.0778628696141797E-005
  0.69526627218934911        2.9585798816568047E-003  -7.0401358589105030E-005
  0.70118343195266275        2.9585798816568047E-003  -6.9746562287459316E-005
  0.70710059171597639        2.9585798816568047E-003  -6.8817050403153644E-005
  0.71301775147929003        2.9585798816568047E-003  -6.7617503334188822E-005
  0.71893491124260367        2.9585798816568047E-003  -6.6154445825622070E-005
  0.72485207100591731        2.9585798816568047E-003  -6.4436186348914535E-005
  0.73076923076923095        2.9585798816568047E-003  -6.2472705829968089E-005
  0.73668639053254459        2.9585798816568047E-003  -6.0275470237284686E-005
  0.74260355029585823        2.9585798816568047E-003  -5.7857118368372543E-005
  0.74852071005917187        2.9585798816568047E-003  -5.5230871309220823E-005
  0.75443786982248551        2.9585798816568047E-003  -5.2409451942781931E-005
  0.76035502958579915        2.9585798816568047E-003  -4.9405218147812584E-005
  0.76627218934911279        2.9585798816568047E-003  -4.6239337457869776E-005
  0.77218934911242643        2.9585798816568047E-003  -4.2941735142514037E-005
  0.77810650887574007        2.9585798816568047E-003  -3.9537772464972946E-005
  0.78402366863905371        2.9585798816568047E-003  -3.6046404724785478E-005
  0.78994082840236735        2.9585798816568047E-003  -3.2486312269782271E-005
  0.79585798816568099        2.9585798816568047E-003  -2.8877030278083820E-005
  0.80177514792899462        2.9585798816568047E-003  -2.5238259354447974E-005
  0.80769230769230826        2.9585798816568047E-003  -2.1589517598285548E-005
  0.81360946745562190        2.9585798816568047E-003  -1.7949997629623392E-005
  0.81952662721893554        2.9585798816568047E-003  -1.4338405182365238E-005
  0.82544378698224918        2.9585798816568047E-003  -1.0772795692220023E-005
  0.83136094674556282        2.9585798816568047E-003  -7.2704448843798431E-006
  0.83727810650887646        2.9585798816568047E-003  -3.8477544275612980E-006
  0.84319526627219010        2.9585798816568047E-003  -5.2016753426479593E-007
  0.84911242603550374        2.9585798816568047E-003   2.6979674950186349E-006
  0.85502958579881738        2.9585798816568047E-003   5.7936085443252797E-006
  0.86094674556213102        2.9585798816568047E-003   8.7548768974196245E-006
  0.86686390532544466        2.9585798816568047E-003   1.1569942117091447E-005
  0.87278106508875830        2.9585798816568047E-003   1.4228246144527078E-005
  0.87869822485207194        2.9585798816568047E-003   1.6720076512204446E-005
  0.88461538461538558        2.9585798816568047E-003   1.9034420114978912E-005
  0.89053254437869922        2.9585798816568047E-003   2.1159131748962439E-005
  0.89644970414201286        2.9585798816568047E-003   2.3080739289930109E-005
  0.90236686390532650        2.9585798816568047E-003   2.4783955347646495E-005
  0.90828402366864014        2.9585798816568047E-003   2.6251074352005215E-005
  0.91420118343195378        2.9585798816568047E-003   2.7461266452729272E-005
  0.92011834319526742        2.9585798816568047E-003   2.8389744259986945E-005
  0.92603550295858106        2.9585798816568047E-003   2.9006778919940781E-005
  0.93195266272189470        2.9585798816568047E-003   2.9276547757442732E-005
  0.93786982248520834        2.9585798816568047E-003   2.9155817659534496E-005
  0.94378698224852198        2.9585798816568047E-003   2.8592547645203627E-005
  0.94970414201183562        2.9585798816568047E-003   2.7524754395851434E-005
  0.95562130177514926        2.9585798816568047E-003   2.5880624101335068E-005
  0.96153846153846290        2.9585798816568047E-003   2.3582034071432005E-005
  0.96745562130177654        2.9585798816568047E-003   2.0557051140069454E-005
  0.97337278106509018        2.9585798816568047E-003   1.6780180569153453E-005
  0.97928994082840382        2.9585798816568047E-003   1.2379157411617576E-005
  0.98520710059171746        2.9585798816568047E-003   7.8014672595606322E-006
  0.99112426035503109        2.9585798816568047E-003   3.9119992789514265E-006
  0.99704142011834473        2.9585798816568047E-003   1.8340526078535183E-006
   1.0000000000000000        2.9585798816568047E-003   0.0000000000000000     
   0.0000000000000000        8.8757396449704144E-003   0.0000000000000000     
   2.9585798816568047E-003   8.8757396449704144E-003  -8.2037046359289502E-006
   8.8757396449704144E-003   8.8757396449704144E-003  -2.6382249685129183E-005
   1.4792899408284023E-002   8.8757396449704144E-003  -3.9523981446526867E-005
   2.0710059171597631E-002   8.8757396449704144E-003  -4.7083136433539132E-005
   2.6627218934911240E-002   8.8757396449704144E-003  -5.0225125686374836E-005
   3.2544378698224852E-002   8.8757396449704144E-003  -5.0031140126533169E-005
   3.8461538461538464E-002   8.8757396449704144E-003  -4.7376976204716498E-005
   4.4378698224852076E-002   8.8757396449704144E-003  -4.2958125732975231E-005
   5.0295857988165688E-002   8.8757396449704144E-003  -3.7306201565619161E-005
   5.6213017751479299E-002   8.8757396449704144E-003  -3.0821577141770053E-005
   6.2130177514792911E-002   8.8757396449704144E-003  -2.3805698276950625E-005
   6.8047337278106523E-002   8.8757396449704144E-003  -1.6485306687992241E-005
   7.3964497041420135E-002   8.8757396449704144E-003  -9.0300500258257737E-006
   7.9881656804733747E-002   8.8757396449704144E-003  -1.5655385959555392E-006
   8.5798816568047359E-002   8.8757396449704144E-003   5.8171118406065937E-006
   9.1715976331360971E-002   8.8757396449704144E-003   1.3053864414477992E-005
   9.7633136094674583E-002   8.8757396449704144E-003   2.0102276144851779E-005
  0.10355029585798819        8.8757396449704144E-003   2.6937527997377929E-005
  0.10946745562130181        8.8757396449704144E-003   3.3547279266930350E-005
  0.11538461538461542        8.8757396449704144E-003   3.9929221485584766E-005
  0.12130177514792903        8.8757396449704144E-003   4.6089602773266873E-005
  0.12721893491124264        8.8757396449704144E-003   5.2040898101862569E-005
  0.13313609467455625        8.8757396449704144E-003   5.7799450305642723E-005
  0.13905325443786987        8.8757396449704144E-003   6.3384031334981676E-005
  0.14497041420118348        8.8757396449704144E-003   6.8814686087745436E-005
  0.15088757396449709        8.8757396449704144E-003   7.4111816724410997E-005
  0.15680473372781070        8.8757396449704144E-003   7.9295411768163639E-005
  0.16272189349112431        8.8757396449704144E-003   8.4384418740936684E-005
  0.16863905325443793        8.8757396449704144E-003   8.9396252696954300E-005
  0.17455621301775154        8.8757396449704144E-003   9.4346424384540335E-005
  0.18047337278106515        8.8757396449704144E-003   9.9248271367234411E-005
  0.18639053254437876        8.8757396449704144E-003   1.0411277676148453E-004
  0.19230769230769237        8.8757396449704144E-003   1.0894846163494030E-004
  0.19822485207100599        8.8757396449704144E-003   1.1376133846418562E-004
  0.20414201183431960        8.8757396449704144E-003   1.1855491438394171E-004