 title=V
 variables=x,y,V
 zone i=         121 ,j=         121
 
   0.0000000000000000        0.0000000000000000        0.0000000000000000     
   4.2016806722689074E-003   0.0000000000000000        0.0000000000000000     
   1.2605042016806723E-002   0.0000000000000000        0.0000000000000000     
   2.1008403361344540E-002   0.0000000000000000        0.0000000000000000     
   2.9411764705882353E-002   0.0000000000000000        0.0000000000000000     
   3.7815126050420166E-002   0.0000000000000000        0.0000000000000000     
   4.6218487394957979E-002   0.0000000000000000        0.0000000000000000     
   5.4621848739495792E-002   0.0000000000000000        0.0000000000000000     
   6.3025210084033612E-002   0.0000000000000000        0.0000000000000000     
   7.1428571428571425E-002   0.0000000000000000        0.0000000000000000     
   7.9831932773109238E-002   0.0000000000000000        0.0000000000000000     
   8.8235294117647051E-002   0.0000000000000000        0.0000000000000000     
   9.6638655462184864E-002   0.0000000000000000        0.0000000000000000     
  0.10504201680672268        0.0000000000000000        0.0000000000000000     
  0.11344537815126049        0.0000000000000000        0.0000000000000000     
  0.12184873949579830        0.0000000000000000        0.0000000000000000     
  0.13025210084033612        0.0000000000000000        0.0000000000000000     
  0.13865546218487393        0.0000000000000000        0.0000000000000000     
  0.14705882352941174        0.0000000000000000        0.0000000000000000     
  0.15546218487394955        0.0000000000000000        0.0000000000000000     
  0.16386554621848737        0.0000000000000000        0.0000000000000000     
  0.17226890756302518        0.0000000000000000        0.0000000000000000     
  0.18067226890756299        0.0000000000000000        0.0000000000000000     
  0.18907563025210081        0.0000000000000000        0.0000000000000000     
  0.19747899159663862        0.0000000000000000        0.0000000000000000     
  0.20588235294117643        0.0000000000000000        0.0000000000000000     
  0.21428571428571425        0.0000000000000000        0.0000000000000000     
  0.22268907563025206        0.0000000000000000        0.0000000000000000     
  0.23109243697478987        0.0000000000000000        0.0000000000000000     
  0.23949579831932769        0.0000000000000000        0.0000000000000000     
  0.24789915966386550        0.0000000000000000        0.0000000000000000     
  0.25630252100840334        0.0000000000000000        0.0000000000000000     
  0.26470588235294118        0.0000000000000000        0.0000000000000000     
  0.27310924369747902        0.0000000000000000        0.0000000000000000     
  0.28151260504201686        0.0000000000000000        0.0000000000000000     
  0.28991596638655470        0.0000000000000000        0.0000000000000000     
  0.29831932773109254        0.0000000000000000        0.0000000000000000     
  0.30672268907563038        0.0000000000000000        0.0000000000000000     
  0.31512605042016822        0.0000000000000000        0.0000000000000000     
  0.32352941176470607        0.0000000000000000        0.0000000000000000     
  0.33193277310924391        0.0000000000000000        0.0000000000000000     
  0.34033613445378175        0.0000000000000000        0.0000000000000000     
  0.34873949579831959        0.0000000000000000        0.0000000000000000     
  0.35714285714285743        0.0000000000000000        0.0000000000000000     
  0.36554621848739527        0.0000000000000000        0.0000000000000000     
  0.37394957983193311        0.0000000000000000        0.0000000000000000     
  0.38235294117647095        0.0000000000000000        0.0000000000000000     
  0.39075630252100879        0.0000000000000000        0.0000000000000000     
  0.39915966386554663        0.0000000000000000        0.0000000000000000     
  0.40756302521008447        0.0000000000000000        0.0000000000000000     
  0.41596638655462231        0.0000000000000000        0.0000000000000000     
  0.42436974789916015        0.0000000000000000        0.0000000000000000     
  0.43277310924369800        0.0000000000000000        0.0000000000000000     
  0.44117647058823584        0.0000000000000000        0.0000000000000000     
  0.44957983193277368        0.0000000000000000        0.0000000000000000     
  0.45798319327731152        0.0000000000000000        0.0000000000000000     
  0.46638655462184936        0.0000000000000000        0.0000000000000000     
  0.47478991596638720        0.0000000000000000        0.0000000000000000     
  0.48319327731092504        0.0000000000000000        0.0000000000000000     
  0.49159663865546288        0.0000000000000000        0.0000000000000000     
  0.50000000000000067        0.0000000000000000        0.0000000000000000     
  0.50840336134453845        0.0000000000000000        0.0000000000000000     
  0.51680672268907624        0.0000000000000000        0.0000000000000000     
  0.52521008403361402        0.0000000000000000        0.0000000000000000     
  0.53361344537815181        0.0000000000000000        0.0000000000000000     
  0.54201680672268959        0.0000000000000000        0.0000000000000000     
  0.55042016806722738        0.0000000000000000        0.0000000000000000     
  0.55882352941176516        0.0000000000000000        0.0000000000000000     
  0.56722689075630295        0.0000000000000000        0.0000000000000000     
  0.57563025210084073        0.0000000000000000        0.0000000000000000     
  0.58403361344537852        0.0000000000000000        0.0000000000000000     
  0.59243697478991630        0.0000000000000000        0.0000000000000000     
  0.60084033613445409        0.0000000000000000        0.0000000000000000     
  0.60924369747899187        0.0000000000000000        0.0000000000000000     
  0.61764705882352966        0.0000000000000000        0.0000000000000000     
  0.62605042016806745        0.0000000000000000        0.0000000000000000     
  0.63445378151260523        0.0000000000000000        0.0000000000000000     
  0.64285714285714302        0.0000000000000000        0.0000000000000000     
  0.65126050420168080        0.0000000000000000        0.0000000000000000     
  0.65966386554621859        0.0000000000000000        0.0000000000000000     
  0.66806722689075637        0.0000000000000000        0.0000000000000000     
  0.67647058823529416        0.0000000000000000        0.0000000000000000     
  0.68487394957983194        0.0000000000000000        0.0000000000000000     
  0.69327731092436973        0.0000000000000000        0.0000000000000000     
  0.70168067226890751        0.0000000000000000        0.0000000000000000     
  0.71008403361344530        0.0000000000000000        0.0000000000000000     
  0.71848739495798308        0.0000000000000000        0.0000000000000000     
  0.72689075630252087        0.0000000000000000        0.0000000000000000     
  0.73529411764705865        0.0000000000000000        0.0000000000000000     
  0.74369747899159644        0.0000000000000000        0.0000000000000000     
  0.75210084033613422        0.0000000000000000        0.0000000000000000     
  0.76050420168067201        0.0000000000000000        0.0000000000000000     
  0.76890756302520979        0.0000000000000000        0.0000000000000000     
  0.77731092436974758        0.0000000000000000        0.0000000000000000     
  0.78571428571428537        0.0000000000000000        0.0000000000000000     
  0.79411764705882315        0.0000000000000000        0.0000000000000000     
  0.80252100840336094        0.0000000000000000        0.0000000000000000     
  0.81092436974789872        0.0000000000000000        0.0000000000000000     
  0.81932773109243651        0.0000000000000000        0.0000000000000000     
  0.82773109243697429        0.0000000000000000        0.0000000000000000     
  0.83613445378151208        0.0000000000000000        0.0000000000000000     
  0.84453781512604986        0.0000000000000000        0.0000000000000000     
  0.85294117647058765        0.0000000000000000        0.0000000000000000     
  0.86134453781512543        0.0000000000000000        0.0000000000000000     
  0.86974789915966322        0.0000000000000000        0.0000000000000000     
  0.87815126050420100        0.0000000000000000        0.0000000000000000     
  0.88655462184873879        0.0000000000000000        0.0000000000000000     
  0.89495798319327657        0.0000000000000000        0.0000000000000000     
  0.90336134453781436        0.0000000000000000        0.0000000000000000     
  0.91176470588235214        0.0000000000000000        0.0000000000000000     
  0.92016806722688993        0.0000000000000000        0.0000000000000000     
  0.92857142857142771        0.0000000000000000        0.0000000000000000     
  0.93697478991596550        0.0000000000000000        0.0000000000000000     
  0.94537815126050329        0.0000000000000000        0.0000000000000000     
  0.95378151260504107        0.0000000000000000        0.0000000000000000     
  0.96218487394957886        0.0000000000000000        0.0000000000000000     
  0.97058823529411664        0.0000000000000000        0.0000000000000000     
  0.97899159663865443        0.0000000000000000        0.0000000000000000     
  0.98739495798319221        0.0000000000000000        0.0000000000000000     
  0.99579831932773000        0.0000000000000000        0.0000000000000000     
   1.0000000000000000        0.0000000000000000        0.0000000000000000     
   0.0000000000000000        4.2016806722689074E-003   0.0000000000000000     
   4.2016806722689074E-003   4.2016806722689074E-003  -6.6862772898825041E-006
   1.2605042016806723E-002   4.2016806722689074E-003  -1.4806248428810806E-005
   2.1008403361344540E-002   4.2016806722689074E-003  -1.9168060081056104E-005
   2.9411764705882353E-002   4.2016806722689074E-003  -2.0200561283746535E-005
   3.7815126050420166E-002   4.2016806722689074E-003  -1.8844977951575601E-005
   4.6218487394957979E-002   4.2016806722689074E-003  -1.5949737977418594E-005
   5.4621848739495792E-002   4.2016806722689074E-003  -1.2139638499415495E-005
   6.3025210084033612E-002   4.2016806722689074E-003  -7.8506557702538502E-006
   7.1428571428571425E-002   4.2016806722689074E-003  -3.3725415871235847E-006
   7.9831932773109238E-002   4.2016806722689074E-003   1.1090488679686684E-006
   8.8235294117647051E-002   4.2016806722689074E-003   5.4808080988880264E-006
   9.6638655462184864E-002   4.2016806722689074E-003   9.6792333093818289E-006
  0.10504201680672268        4.2016806722689074E-003   1.3674244318333859E-005
  0.11344537815126049        4.2016806722689074E-003   1.7458846187044338E-005
  0.12184873949579830        4.2016806722689074E-003   2.1040778924428245E-005
  0.13025210084033612        4.2016806722689074E-003   2.4437982320995203E-005
  0.13865546218487393        4.2016806722689074E-003   2.7674708351686558E-005
  0.14705882352941174        4.2016806722689074E-003   3.0778034932179059E-005
  0.15546218487394955        4.2016806722689074E-003   3.3774846370551110E-005
  0.16386554621848737        4.2016806722689074E-003   3.6690355852008914E-005
  0.17226890756302518        4.2016806722689074E-003   3.9547056859130393E-005
  0.18067226890756299        4.2016806722689074E-003   4.2363960375141501E-005
  0.18907563025210081        4.2016806722689074E-003   4.5156125490717447E-005
  0.19747899159663862        4.2016806722689074E-003   4.7934432534969205E-005
  0.20588235294117643        4.2016806722689074E-003   5.0705543296815607E-005
  0.21428571428571425        4.2016806722689074E-003   5.3472000318140505E-005
  0.22268907563025206        4.2016806722689074E-003   5.6232424640397694E-005
  0.23109243697478987        4.2016806722689074E-003   5.8981778348251150E-005
  0.23949579831932769        4.2016806722689074E-003   6.1711664796396473E-005
  0.24789915966386550        4.2016806722689074E-003   6.4410645458406194E-005
  0.25630252100840334        4.2016806722689074E-003   6.7064557813199474E-005
  0.26470588235294118        4.2016806722689074E-003   6.9656823542233308E-005
  0.27310924369747902        4.2016806722689074E-003   7.2168740513591097E-005
  0.28151260504201686        4.2016806722689074E-003   7.4579755512911027E-005
  0.28991596638655470        4.2016806722689074E-003   7.6867717484784714E-005
  0.29831932773109254        4.2016806722689074E-003   7.9009113126991555E-005
  0.30672268907563038        4.2016806722689074E-003   8.0979288136103124E-005
  0.31512605042016822        4.2016806722689074E-003   8.2752658255196089E-005
  0.32352941176470607        4.2016806722689074E-003   8.4302914626370511E-005
  0.33193277310924391        4.2016806722689074E-003   8.5603227891774706E-005
  0.34033613445378175        4.2016806722689074E-003   8.6626455105026155E-005
  0.34873949579831959        4.2016806722689074E-003   8.7345352902339483E-005
  0.35714285714285743        4.2016806722689074E-003   8.7732799623052268E-005
  0.36554621848739527        4.2016806722689074E-003   8.7762028222003731E-005
  0.37394957983193311        4.2016806722689074E-003   8.7406870942423172E-005
  0.38235294117647095        4.2016806722689074E-003   8.6642015835641502E-005
  0.39075630252100879        4.2016806722689074E-003   8.5443274367955183E-005
  0.39915966386554663        4.2016806722689074E-003   8.3787858504613146E-005
  0.40756302521008447        4.2016806722689074E-003   8.1654664856042780E-005
  0.41596638655462231        4.2016806722689074E-003   7.9024562640374281E-005
  0.42436974789916015        4.2016806722689074E-003   7.5880681407684481E-005
  0.43277310924369800        4.2016806722689074E-003   7.2208693714587684E-005
  0.44117647058823584        4.2016806722689074E-003   6.7997087486852459E-005
  0.44957983193277368        4.2016806722689074E-003   6.3237422911179320E-005
  0.45798319327731152        4.2016806722689074E-003   5.7924568853781750E-005
  0.46638655462184936        4.2016806722689074E-003   5.2056915584790233E-005
  0.47478991596638720        4.2016806722689074E-003   4.5636584618560310E-005
  0.48319327731092504        4.2016806722689074E-003   3.8669731273294088E-005
  0.49159663865546288        4.2016806722689074E-003   3.1166980196360655E-005
  0.50000000000000067        4.2016806722689074E-003   2.3143605457281602E-005
  0.50840336134453845        4.2016806722689074E-003   1.4621985775508051E-005
  0.51680672268907624        4.2016806722689074E-003   5.6545472649241334E-006
  0.52521008403361402        4.2016806722689074E-003  -3.6291464401700516E-006
  0.53361344537815181        4.2016806722689074E-003  -1.3121796162779850E-005
  0.54201680672268959        4.2016806722689074E-003  -2.2813555968941088E-005
  0.55042016806722738        4.2016806722689074E-003  -3.2690410229160022E-005
  0.55882352941176516        4.2016806722689074E-003  -4.2697655463076768E-005
  0.56722689075630295        4.2016806722689074E-003  -5.2762068955742348E-005
  0.57563025210084073        4.2016806722689074E-003  -6.2801578414074555E-005
  0.58403361344537852        4.2016806722689074E-003  -7.2728077840288156E-005
  0.59243697478991630        4.2016806722689074E-003  -8.2449101801723148E-005
  0.60084033613445409        4.2016806722689074E-003  -9.1869208254105025E-005
  0.60924369747899187        4.2016806722689074E-003  -1.0089125371493840E-004
  0.61764705882352966        4.2016806722689074E-003  -1.0941770129407874E-004
  0.62605042016806745        4.2016806722689074E-003  -1.1735201814013459E-004
  0.63445378151260523        4.2016806722689074E-003  -1.2460016977194690E-004
  0.64285714285714302        4.2016806722689074E-003  -1.3107219825492361E-004
  0.65126050420168080        4.2016806722689074E-003  -1.3668385982051551E-004
  0.65966386554621859        4.2016806722689074E-003  -1.4135828943463144E-004
  0.66806722689075637        4.2016806722689074E-003  -1.4502765352608526E-004
  0.67647058823529416        4.2016806722689074E-003  -1.4763474701082009E-004
  0.68487394957983194        4.2016806722689074E-003  -1.4913448676472105E-004
  0.69327731092436973        4.2016806722689074E-003  -1.4949525072891187E-004
  0.70168067226890751        4.2016806722689074E-003  -1.4870000965773201E-004
  0.71008403361344530        4.2016806722689074E-003  -1.4674719592531403E-004
  0.71848739495798308        4.2016806722689074E-003  -1.4365124686416925E-004
  0.72689075630252087        4.2016806722689074E-003  -1.3944274045317944E-004
  0.73529411764705865        4.2016806722689074E-003  -1.3416800406536547E-004
  0.74369747899159644        4.2016806722689074E-003  -1.2788800181964111E-004
  0.75210084033613422        4.2016806722689074E-003  -1.2067587824215385E-004
  0.76050420168067201        4.2016806722689074E-003  -1.1261131505311929E-004
  0.76890756302520979        4.2016806722689074E-003  -1.0377429666309216E-004
  0.77731092436974758        4.2016806722689074E-003  -9.4274983944009588E-005
  0.78571428571428537        4.2016806722689074E-003  -8.4272867581723662E-005
  0.79411764705882315        4.2016806722689074E-003  -7.3922754733714193E-005
  0.80252100840336094        4.2016806722689074E-003  -6.3346041261790926E-005
  0.81092436974789872        4.2016806722689074E-003  -5.2656637918484792E-005
  0.81932773109243651        4.2016806722689074E-003  -4.1972927905276742E-005
  0.82773109243697429        4.2016806722689074E-003  -3.1411185167036287E-005
  0.83613445378151208        4.2016806722689074E-003  -2.1082295509549213E-005
  0.84453781512604986        4.2016806722689074E-003  -1.1089912392718684E-005
  0.85294117647058765        4.2016806722689074E-003  -1.5244724315141033E-006
  0.86134453781512543        4.2016806722689074E-003   7.5362238123850378E-006
  0.86974789915966322        4.2016806722689074E-003   1.6018412298075605E-005
  0.87815126050420100        4.2016806722689074E-003   2.3852295480015552E-005
  0.88655462184873879        4.2016806722689074E-003   3.0969754198765033E-005
  0.89495798319327657        4.2016806722689074E-003   3.7295530744352203E-005
  0.90336134453781436        4.2016806722689074E-003   4.2740047363825062E-005
  0.91176470588235214        4.2016806722689074E-003   4.7191881141209607E-005
  0.92016806722688993        4.2016806722689074E-003   5.0507999409426476E-005
  0.92857142857142771        4.2016806722689074E-003   5.2500932674734714E-005
  0.93697478991596550        4.2016806722689074E-003   5.2922270035656893E-005
  0.94537815126050329        4.2016806722689074E-003   5.1443031042759924E-005
  0.95378151260504107        4.2016806722689074E-003   4.7636330640040279E-005
  0.96218487394957886        4.2016806722689074E-003   4.0977429859603266E-005
  0.97058823529411664        4.2016806722689074E-003   3.0902058647220174E-005
  0.97899159663865443        4.2016806722689074E-003   1.7120272944791757E-005
  0.98739495798319221        4.2016806722689074E-003   9.9422290307610794E-007
  0.99579831932773000        4.2016806722689074E-003  -9.8654248851691702E-006
   1.0000000000000000        4.2016806722689074E-003   0.0000000000000000     
   0.0000000000000000        1.2605042016806723E-002   0.0000000000000000     
   4.2016806722689074E-003   1.2605042016806723E-002  -6.5965453739750421E-006
   1.2605042016806723E-002   1.2605042016806723E-002  -3.1270799812693706E-005
   2.1008403361344540E-002   1.2605042016806723E-002  -4.5764400025660773E-005
   2.9411764705882353E-002   1.2605042016806723E-002  -4.7985374005641394E-005
   3.7815126050420166E-002   1.2605042016806723E-002  -4.0819058605136813E-005
   4.6218487394957979E-002   1.2605042016806723E-002  -2.7243998514100867E-005
   5.4621848739495792E-002   1.2605042016806723E-002  -9.6250753843621168E-006
   6.3025210084033612E-002   1.2605042016806723E-002   1.0288051937363849E-005
   7.1428571428571425E-002   1.2605042016806723E-002   3.1265749881463903E-005
   7.9831932773109238E-002   1.2605042016806723E-002   5.2474925214149123E-005
   8.8235294117647051E-002   1.2605042016806723E-002   7.3377040937776903E-005
   9.6638655462184864E-002   1.2605042016806723E-002   9.3646638216260687E-005
  0.10504201680672268        1.2605042016806723E-002   1.1310879343940443E-004
  0.11344537815126049        1.2605042016806723E-002   1.3169527182349118E-004
  0.12184873949579830        1.2605042016806723E-002   1.4941028070349392E-004
  0.13025210084033612        1.2605042016806723E-002   1.6631494265648364E-004
  0.13865546218487393        1.2605042016806723E-002   1.8249982174735918E-004
  0.14705882352941174        1.2605042016806723E-002   1.9807061223599379E-004
  0.15546218487394955        1.2605042016806723E-002   2.1313619206296625E-004
  0.16386554621848737        1.2605042016806723E-002   2.2780082652198953E-004
  0.17226890756302518        1.2605042016806723E-002   2.4215840621466628E-004
  0.18067226890756299        1.2605042016806723E-002   2.5628837285466953E-004
  0.18907563025210081        1.2605042016806723E-002   2.7025311662329438E-004
  0.19747899159663862        1.2605042016806723E-002   2.8409656354312244E-004
  0.20588235294117643        1.2605042016806723E-002   2.9784369095667946E-004
  0.21428571428571425        1.2605042016806723E-002   3.1150074581248055E-004
  0.22268907563025206        1.2605042016806723E-002   3.2505597443417380E-004
  0.23109243697478987        1.2605042016806723E-002   3.3848070419820718E-004
  0.23949579831932769        1.2605042016806723E-002   3.5173064734963957E-004
  0.24789915966386550        1.2605042016806723E-002   3.6474732477295892E-004
  0.25630252100840334        1.2605042016806723E-002   3.7745953263439033E-004
  0.26470588235294118        1.2605042016806723E-002   3.8978479717601927E-004
  0.27310924369747902        1.2605042016806723E-002   4.0163078231933392E-004
  0.28151260504201686        1.2605042016806723E-002   4.1289663099222749E-004
  0.28991596638655470        1.2605042016806723E-002   4.2347423413950126E-004
  0.29831932773109254        1.2605042016806723E-002   4.3324943130701378E-004
  0.30672268907563038        1.2605042016806723E-002   4.4210315366190477E-004
  0.31512605042016822        1.2605042016806723E-002   4.4991252462375488E-004
  0.32352941176470607        1.2605042016806723E-002   4.5655193528239545E-004
  0.33193277310924391        1.2605042016806723E-002   4.6189411189534365E-004
  0.34033613445378175        1.2605042016806723E-002   4.6581119138100821E-004
  0.34873949579831959        1.2605042016806723E-002   4.6817581829365737E-004
  0.35714285714285743        1.2605042016806723E-002   4.6886227363253065E-004
  0.36554621848739527        1.2605042016806723E-002   4.6774764232428585E-004
  0.37394957983193311        1.2605042016806723E-002   4.6471302257815208E-004
  0.38235294117647095        1.2605042016806723E-002   4.5964477673504954E-004
  0.39075630252100879        1.2605042016806723E-002   4.5243581985134854E-004
  0.39915966386554663        1.2605042016806723E-002   4.4298693915441334E-004
  0.40756302521008447        1.2605042016806723E-002   4.3120813478270971E-004
  0.41596638655462231        1.2605042016806723E-002   4.1701996999540016E-004
  0.42436974789916015        1.2605042016806723E-002   4.0035491759747696E-004
  0.43277310924369800        1.2605042016806723E-002   3.8115868944895321E-004
  0.44117647058823584        1.2605042016806723E-002   3.5939153937490485E-004
  0.44957983193277368        1.2605042016806723E-002   3.3502953883653765E-004
  0.45798319327731152        1.2605042016806723E-002   3.0806584054000522E-004
  0.46638655462184936        1.2605042016806723E-002   2.7851198307549639E-004
  0.47478991596638720        1.2605042016806723E-002   2.4639942902068878E-004
  0.48319327731092504        1.2605042016806723E-002   2.1178180957089364E-004
  0.49159663865546288        1.2605042016806723E-002   1.7473809742829763E-004
  0.50000000000000067        1.2605042016806723E-002   1.3537576558131010E-004
  0.50840336134453845        1.2605042016806723E-002   9.3842862487770155E-005
  0.51680672268907624        1.2605042016806723E-002   5.0403536977900376E-005
  0.52521008403361402        1.2605042016806723E-002   5.5694832675165539E-006
  0.53361344537815181        1.2605042016806723E-002  -4.0298370552990167E-005
  0.54201680672268959        1.2605042016806723E-002  -8.7120761684214852E-005
  0.55042016806722738        1.2605042016806723E-002  -1.3472028001103585E-004
  0.55882352941176516        1.2605042016806723E-002  -1.8280328344964930E-004
  0.56722689075630295        1.2605042016806723E-002  -2.3101936618602142E-004
  0.57563025210084073        1.2605042016806723E-002  -2.7898362370738181E-004
  0.58403361344537852        1.2605042016806723E-002  -3.2628590254677473E-004
  0.59243697478991630        1.2605042016806723E-002  -3.7249787277436727E-004
  0.60084033613445409        1.2605042016806723E-002  -4.1717913847711757E-004
  0.60924369747899187        1.2605042016806723E-002  -4.5988302707952690E-004
  0.61764705882352966        1.2605042016806723E-002  -5.0016253967299440E-004
  0.62605042016806745        1.2605042016806723E-002  -5.3757664383007910E-004
  0.63445378151260523        1.2605042016806723E-002  -5.7169693329017833E-004
  0.64285714285714302        1.2605042016806723E-002  -6.0211460486672534E-004
  0.65126050420168080        1.2605042016806723E-002  -6.2844765580104289E-004
  0.65966386554621859        1.2605042016806723E-002  -6.5034816991360611E-004
  0.66806722689075637        1.2605042016806723E-002  -6.6750953347527312E-004
  0.67647058823529416        1.2605042016806723E-002  -6.7967339940098299E-004
  0.68487394957983194        1.2605042016806723E-002  -6.8663620046536318E-004
  0.69327731092436973        1.2605042016806723E-002  -6.8825499855364159E-004
  0.70168067226890751        1.2605042016806723E-002  -6.8445244682176828E-004
  0.71008403361344530        1.2605042016806723E-002  -6.7522063225659379E-004
  0.71848739495798308        1.2605042016806723E-002  -6.6062354831061734E-004
  0.72689075630252087        1.2605042016806723E-002  -6.4079789881181439E-004
  0.73529411764705865        1.2605042016806723E-002  -6.1595183945757442E-004
  0.74369747899159644        1.2605042016806723E-002  -5.8636114553993891E-004
  0.75210084033613422        1.2605042016806723E-002  -5.5236166606084419E-004
  0.76050420168067201        1.2605042016806723E-002  -5.1433365099459022E-004
  0.76890756302520979        1.2605042016806723E-002  -4.7267579201076842E-004
  0.77731092436974758        1.2605042016806723E-002  -4.2782712697032616E-004
  0.78571428571428537        1.2605042016806723E-002  -3.8045145907463206E-004
  0.79411764705882315        1.2605042016806723E-002  -3.3128717203389011E-004
  0.80252100840336094        1.2605042016806723E-002  -2.8093410533156524E-004
  0.81092436974789872        1.2605042016806723E-002  -2.2993175701916006E-004
  0.81932773109243651        1.2605042016806723E-002  -1.7883796739744912E-004
  0.82773109243697429        1.2605042016806723E-002  -1.2820509254742821E-004
  0.83613445378151208        1.2605042016806723E-002  -7.8563534663658656E-005
  0.84453781512604986        1.2605042016806723E-002  -3.0416342431444347E-005
  0.85294117647058765        1.2605042016806723E-002   1.5774174067468561E-005
  0.86134453781512543        1.2605042016806723E-002   5.9601949629787282E-005
  0.86974789915966322        1.2605042016806723E-002   1.0069776791123573E-004
  0.87815126050420100        1.2605042016806723E-002   1.3869926505456187E-004
  0.88655462184873879        1.2605042016806723E-002   1.7324413204950517E-004
  0.89495798319327657        1.2605042016806723E-002   2.0393992154246082E-004
  0.90336134453781436        1.2605042016806723E-002   2.3033579894679904E-004
  0.91176470588235214        1.2605042016806723E-002   2.5189315722464243E-004
  0.92016806722688993        1.2605042016806723E-002   2.6795039528433774E-004
  0.92857142857142771        1.2605042016806723E-002   2.7768104733793441E-004
  0.93697478991596550        1.2605042016806723E-002   2.8004696907409885E-004
  0.94537815126050329        1.2605042016806723E-002   2.7375439390507725E-004
  0.95378151260504107        1.2605042016806723E-002   2.5723896967004887E-004
  0.96218487394957886        1.2605042016806723E-002   2.2874301547983820E-004
  0.97058823529411664        1.2605042016806723E-002   1.8661847736309840E-004
  0.97899159663865443        1.2605042016806723E-002   1.3027423521139360E-004
  0.98739495798319221        1.2605042016806723E-002   6.3335302830530267E-005
  0.99579831932773000        1.2605042016806723E-002   2.9857149782257364E-006
   1.0000000000000000        1.2605042016806723E-002   0.0000000000000000     
   0.0000000000000000        2.1008403361344540E-002   0.0000000000000000     
   4.2016806722689074E-003   2.1008403361344540E-002  -3.7109212940478306E-005
   1.2605042016806723E-002   2.1008403361344540E-002  -9.3655396075036711E-005
   2.1008403361344540E-002   2.1008403361344540E-002  -1.2107422232886745E-004
   2.9411764705882353E-002   2.1008403361344540E-002  -1.2100096954775377E-004
   3.7815126050420166E-002   2.1008403361344540E-002  -9.9451625998561114E-005
   4.6218487394957979E-002   2.1008403361344540E-002  -6.2495975950638017E-005
   5.4621848739495792E-002   2.1008403361344540E-002  -1.5250439029885444E-005
   6.3025210084033612E-002   2.1008403361344540E-002   3.8279544460342361E-005
   7.1428571428571425E-002   2.1008403361344540E-002   9.5113850960694104E-005
   7.9831932773109238E-002   2.1008403361344540E-002   1.5312225120579627E-004
   8.8235294117647051E-002   2.1008403361344540E-002   2.1085152472957825E-004
   9.6638655462184864E-002   2.1008403361344540E-002   2.6736271392522096E-004
  0.10504201680672268        2.1008403361344540E-002   3.2209356709483774E-004
  0.11344537815126049        2.1008403361344540E-002   3.7477488085332824E-004