 title=V
 variables=x,y,V
 zone i=           5 ,j=           5
 
   0.0000000000000000        0.0000000000000000        0.0000000000000000     
  0.16666666666666666        0.0000000000000000        0.0000000000000000     
  0.50000000000000000        0.0000000000000000        0.0000000000000000     
  0.83333333333333326        0.0000000000000000        0.0000000000000000     
   1.0000000000000000        0.0000000000000000        0.0000000000000000     
   0.0000000000000000       0.16666666666666666        0.0000000000000000     
  0.16666666666666666       0.16666666666666666        1.1038498313601200E-002
  0.50000000000000000       0.16666666666666666       -1.7227882058372002E-002
  0.83333333333333326       0.16666666666666666       -4.5815430361333800E-002
   1.0000000000000000       0.16666666666666666        0.0000000000000000     
   0.0000000000000000       0.50000000000000000        0.0000000000000000     
  0.16666666666666666       0.50000000000000000        4.6820915692010752E-002
  0.50000000000000000       0.50000000000000000       -2.4098395898146694E-002
  0.83333333333333326       0.50000000000000000       -7.5610934810436237E-002
   1.0000000000000000       0.50000000000000000        0.0000000000000000     
   0.0000000000000000       0.83333333333333326        0.0000000000000000     
  0.16666666666666666       0.83333333333333326        8.9222854707255161E-002
  0.50000000000000000       0.83333333333333326        5.1183902516542992E-002
  0.83333333333333326       0.83333333333333326       -4.1536543096455047E-002
   1.0000000000000000       0.83333333333333326        0.0000000000000000     
   0.0000000000000000        1.0000000000000000        0.0000000000000000     
  0.16666666666666666        1.0000000000000000        0.0000000000000000     
  0.50000000000000000        1.0000000000000000        0.0000000000000000     
  0.83333333333333326        1.0000000000000000        0.0000000000000000     
   1.0000000000000000        1.0000000000000000        0.0000000000000000     
